
Running Job 1 of 1 pirrol.in
qchem pirrol.in_24051.0 /scratch/608405.1.iqtc04.q/qchem608405/ 1
                  Welcome to Q-Chem
     A Quantum Leap Into The Future Of Chemistry

 Y. Shao, L. Fusti-Molnar, Y. Jung, J. Kussmann, C. Ochsenfeld, S. T. Brown, 
 A. T. B. Gilbert, L. V. Slipchenko, S. V. Levchenko, D. P. O'Neill, 
 R. A. DiStasio Jr., R. C. Lochan, T. Wang, G. J. O. Beran, N. A. Besley, 
 J. M. Herbert, C. Y. Lin, T. Van Voorhis, S. H. Chien, A. Sodt, R. P. Steele, 
 V. A. Rassolov, P. E. Maslen, P. P. Korambath, R. D. Adamson, B. Austin, 
 J. Baker, E. F. C. Byrd, H. Dachsel, R. J. Doerksen, A. Dreuw, B. D. Dunietz, 
 A. D. Dutoi, T. R. Furlani, S. R. Gwaltney, A. Heyden, S. Hirata, C.-P. Hsu, 
 G. Kedziora, R. Z. Khaliullin, P. Klunzinger, A. M. Lee, M. S. Lee, W. Liang, 
 I. Lotan, N. Nair, B. Peters, E. I. Proynov, P. A. Pieniazek, Y. M. Rhee, 
 J. Ritchie, E. Rosta, C. D. Sherrill, A. C. Simmonett, J. E. Subotnik, 
 H. L. Woodcock III, W. Zhang, A. T. Bell, A. K. Chakraborty, D. M. Chipman, 
 F. J. Keil, A. Warshel, W. J. Hehre, H. F. Schaefer III, J. Kong, 
 A. I. Krylov, P. M. W. Gill, M. Head-Gordon

 Additional authors for Version 3.1: 
 Z. Gan, Y. Zhao, N. E. Schultz, D. Truhlar, E. Epifanovsky, M. Oana

 Additional authors for Version 3.2: 
 R. Baer, B. R. Brooks, D. Casanova, J.-D. Chai, C.-L. Cheng, C. Cramer, 
 D. Crittenden, A. Ghysels, G. Hawkins, E. G. Hohenstein, C. Kelley, 
 W. Kurlancheek, D. Liotard, E. Livshits, P. Manohar, A. Marenich, 
 D. Neuhauser, R. Olson, M. A. Rohrdanz, K. S. Thanthiriwatte, A. J. W. Thom, 
 V. Vanovschi, C. F. Williams, Q. Wu, Z.-Q. You

 Additional authors for Version 4.0: 
 A. Aspuru-Guzik, Y. Bernard, C. Chang, J. Deng, A. Dreuw, M. Diedenhofen, 
 R. G. Edgar, D. Ghosh, W. A. Goddard III, M. Goldey, L. D. Jacobson, 
 M. Gordon, B. Kaduk, I. Kaliman, K. Khistyaev, R. King, A. Klamt, 
 D. Kosenkov, T. Kus, D. Lambrecht, A. Landau, A. W. Lange, K. Lawler, F. Liu, 
 J. Liu, R. Olivares-Amaya, S. P. Mao, J. Parkhill, N. Russ, M. Schmidt, 
 N. Shenvi, D. Small, Y. C. Su, E. Sundstrom, L. Vogt, O. Vydrov, M. Watson, 
 M. Wormit, X. Xu, S. Yeganeh, I. Y. Zhang, D. Zuev

 Additional authors for Version 4.1: 
 X. Feng, M. W. D. Hanson-Heine, P. Horn, H. Ji, A. Laurent, R. Peverati, 
 N. Mardirossian, N. Sergueev, S. Sharada, P. Zimmerman

 Q-Chem, Version 4.1, Q-Chem, Inc., Pittsburgh, PA (2013).

 Parts of Q-Chem use Armadillo 3.6.2 (Piazza del Duomo).
 http://arma.sourceforge.net/

 Intel X86 Linux Version 4.1.2

 Q-chem begins on Wed Nov 26 12:43:37 2014  

Host: g4noden13
0

     Scratch files written to /scratch/608405.1.iqtc04.q/qchem608405//
 Feb414 28838_zgan 0   
Processing $rem in /aplic/qchem/4.1.1//config/preferences.
 MEM_TOTAL  2000 
Finally everything over in PARseQInput

--------------------------------------------------------------
User input:
--------------------------------------------------------------
$molecule
0 1
H            .000000     .000000    2.129296
N            .000000     .000000    1.118684
C            .000000    1.124516     .333565
C            .000000   -1.124516     .333565
C            .000000     .708407    -.983807
C            .000000    -.708407    -.983807
H            .000000    2.112872     .770496
H            .000000   -2.112872     .770496
H            .000000    1.357252   -1.849085
H            .000000   -1.357252   -1.849085
$end

$rem
jobtype sp
exchange hf
basis  sto-3g
print_orbitals  true
molden_format   true
sym_ignore  true
$end
--------------------------------------------------------------
 ----------------------------------------------------------------
             Standard Nuclear Orientation (Angstroms)
    I     Atom           X                Y                Z
 ----------------------------------------------------------------
    1      H       0.0000000000     0.0000000000     2.1292960000
    2      N       0.0000000000     0.0000000000     1.1186840000
    3      C       0.0000000000     1.1245160000     0.3335650000
    4      C       0.0000000000    -1.1245160000     0.3335650000
    5      C       0.0000000000     0.7084070000    -0.9838070000
    6      C       0.0000000000    -0.7084070000    -0.9838070000
    7      H       0.0000000000     2.1128720000     0.7704960000
    8      H       0.0000000000    -2.1128720000     0.7704960000
    9      H       0.0000000000     1.3572520000    -1.8490850000
   10      H       0.0000000000    -1.3572520000    -1.8490850000
 ----------------------------------------------------------------
 Nuclear Repulsion Energy =   160.9055224922 hartrees
 There are       18 alpha and       18 beta electrons
 Requested basis set is STO-3G
 There are 15 shells and 30 basis functions

Total QAlloc Memory Limit   2000 MB
Mega-Array Size        61 MB
MEM_STATIC part        62 MB

                       Distance Matrix (Angstroms)
             H (  1)   N (  2)   C (  3)   C (  4)   C (  5)   C (  6)
   N (  2)  1.010612
   C (  3)  2.118770  1.371477
   C (  4)  2.118770  1.371477  2.249032
   C (  5)  3.192687  2.218628  1.381527  2.257227
   C (  6)  3.192687  2.218628  2.257227  1.381527  1.416814
   H (  7)  2.512084  2.141369  1.080628  3.266740  2.247243  3.322227
   H (  8)  2.512084  2.141369  3.266740  1.080628  3.322227  2.247243
   H (  9)  4.203528  3.263401  2.195023  3.305016  1.081529  2.239565
   H ( 10)  4.203528  3.263401  3.305016  2.195023  2.239565  1.081529
             H (  7)   H (  8)   H (  9)
   H (  8)  4.225744
   H (  9)  2.726383  4.347869
   H ( 10)  4.347869  2.726383  2.714504
 
 A cutoff of  1.0D-08 yielded    115 shell pairs
 There are       490 function pairs
 Smallest overlap matrix eigenvalue = 1.80E-01

  Scale SEOQF with 1.000000e+00/1.000000e-01/1.000000e-01

 Standard Electronic Orientation quadrupole field applied
 Nucleus-field energy     =    -0.0000000013 hartrees
 Guess from superposition of atomic densities
 Warning:  Energy on first SCF cycle will be non-variational
 A restricted Hartree-Fock SCF calculation will be
 performed using Pulay DIIS extrapolation
 SCF converges when DIIS error is below 1.0E-05
 ---------------------------------------
  Cycle       Energy         DIIS Error
 ---------------------------------------
    1    -206.4700203374      2.23E-01
    2    -206.1918120386      1.32E-02
    3    -206.2208133156      4.91E-03
    4    -206.2239774921      1.84E-03
    5    -206.2245545327      1.63E-04
    6    -206.2245627084      6.61E-05
    7    -206.2245647954      2.37E-05
    8    -206.2245649950      3.99E-06 Convergence criterion met
 ---------------------------------------
 SCF time:  CPU 0.18 s  wall 0.26 s
 SCF   energy in the final basis set = -206.2245649950
 Total energy in the final basis set = -206.2245649950
 Analysis of SCF Wavefunction
 
 --------------------------------------------------------------
                    Orbital Energies (a.u.)
 --------------------------------------------------------------
 
 Alpha MOs
 -- Occupied --
-15.409 -11.038 -11.037 -10.987 -10.987  -1.225  -0.976  -0.912
 -0.733  -0.705  -0.682  -0.528  -0.522  -0.517  -0.482  -0.462
 -0.281  -0.233
 -- Virtual --
  0.322   0.409   0.564   0.643   0.683   0.693   0.717   0.779
  0.795   0.971   1.048   1.143
 --------------------------------------------------------------
 

                        RESTRICTED (RHF) MOLECULAR ORBITAL COEFFICIENTS
                         1         2         3         4         5         6
 eigenvalues:        -15.409   -11.038   -11.037   -10.987   -10.987    -1.225
   1  H 1   s       -0.00643   0.00000  -0.00036  -0.00013   0.00000   0.09872
   2  N     s        0.99323   0.00000   0.00054   0.00004   0.00000  -0.19198
   3  N     s        0.03295   0.00000  -0.00862   0.00041   0.00000   0.62092
   4  N     px       0.00000   0.00000   0.00000   0.00000   0.00000   0.00000
   5  N     py       0.00000   0.00454   0.00000   0.00000  -0.00018   0.00000
   6  N     pz      -0.00109   0.00000   0.00289   0.00013   0.00000  -0.06454
   7  C 1   s        0.00048  -0.70157   0.70172  -0.00183   0.00361  -0.09603
   8  C 1   s       -0.00611  -0.02516   0.02481  -0.00526   0.00551   0.21622
   9  C 1   px       0.00000   0.00000   0.00000   0.00000   0.00000   0.00000
  10  C 1   py       0.00392   0.00169  -0.00100   0.00113  -0.00081  -0.08655
  11  C 1   pz      -0.00268   0.00037  -0.00019   0.00311  -0.00317   0.02588
  12  C 2   s        0.00048   0.70157   0.70172  -0.00183  -0.00361  -0.09603
  13  C 2   s       -0.00611   0.02516   0.02481  -0.00526  -0.00551   0.21622
  14  C 2   px       0.00000   0.00000   0.00000   0.00000   0.00000   0.00000
  15  C 2   py      -0.00392   0.00169   0.00100  -0.00113  -0.00081   0.08655
  16  C 2   pz      -0.00268  -0.00037  -0.00019   0.00311   0.00317   0.02588
  17  C 3   s        0.00000  -0.00404   0.00242   0.70184  -0.70125  -0.04997
  18  C 3   s        0.00040   0.00497  -0.00483   0.02096  -0.03076   0.11253
  19  C 3   px       0.00000   0.00000   0.00000   0.00000   0.00000   0.00000
  20  C 3   py      -0.00004   0.00105  -0.00089   0.00254   0.00383  -0.01724
  21  C 3   pz       0.00026   0.00279  -0.00314   0.00145  -0.00138   0.04500
  22  C 4   s        0.00000   0.00404   0.00242   0.70184   0.70125  -0.04997
  23  C 4   s        0.00040  -0.00497  -0.00483   0.02096   0.03076   0.11253
  24  C 4   px       0.00000   0.00000   0.00000   0.00000   0.00000   0.00000
  25  C 4   py       0.00004   0.00105   0.00089  -0.00254   0.00383   0.01724
  26  C 4   pz       0.00026  -0.00279  -0.00314   0.00145   0.00138   0.04500
  27  H 2   s        0.00024   0.00457  -0.00476   0.00002  -0.00018   0.03327
  28  H 3   s        0.00024  -0.00457  -0.00476   0.00002   0.00018   0.03327
  29  H 4   s       -0.00004  -0.00014  -0.00004  -0.00462   0.00476   0.01417
  30  H 5   s       -0.00004   0.00014  -0.00004  -0.00462  -0.00476   0.01417
                         7         8         9        10        11        12
 eigenvalues:         -0.976    -0.912    -0.733    -0.705    -0.682    -0.528
   1  H 1   s       -0.15247   0.00000   0.30973   0.00000  -0.11864   0.30231
   2  N     s        0.10663   0.00000  -0.04083   0.00000  -0.03535   0.03462
   3  N     s       -0.38643   0.00000   0.16068   0.00000   0.13877  -0.15852
   4  N     px       0.00000   0.00000   0.00000   0.00000   0.00000   0.00000
   5  N     py       0.00000   0.25876   0.00000   0.32536   0.00000   0.00000
   6  N     pz      -0.12774   0.00000   0.39376   0.00000  -0.24222   0.39032
   7  C 1   s       -0.04239  -0.15370   0.08456  -0.03524   0.06856  -0.00647
   8  C 1   s        0.11204   0.43010  -0.25397   0.10841  -0.22667   0.01210
   9  C 1   px       0.00000   0.00000   0.00000   0.00000   0.00000   0.00000
  10  C 1   py      -0.00070  -0.01058   0.00833  -0.00432  -0.29059   0.04215
  11  C 1   pz      -0.14038  -0.01485  -0.00747   0.25299  -0.03473  -0.23032
  12  C 2   s       -0.04239   0.15370   0.08456   0.03524   0.06856  -0.00647
  13  C 2   s        0.11204  -0.43010  -0.25397  -0.10841  -0.22667   0.01210
  14  C 2   px       0.00000   0.00000   0.00000   0.00000   0.00000   0.00000
  15  C 2   py       0.00070  -0.01058  -0.00833  -0.00432   0.29059  -0.04215
  16  C 2   pz      -0.14038   0.01485  -0.00747  -0.25299  -0.03473  -0.23032
  17  C 3   s       -0.14671  -0.07921  -0.07856   0.11190   0.00043  -0.01430
  18  C 3   s        0.38322   0.21700   0.24225  -0.33393  -0.01400   0.03807
  19  C 3   px       0.00000   0.00000   0.00000   0.00000   0.00000   0.00000
  20  C 3   py      -0.07193   0.08130  -0.07583  -0.14906  -0.15299  -0.11773
  21  C 3   pz       0.04284   0.08215  -0.17761   0.03069   0.03750   0.32194
  22  C 4   s       -0.14671   0.07921  -0.07856  -0.11190   0.00043  -0.01430
  23  C 4   s        0.38322  -0.21700   0.24225   0.33393  -0.01400   0.03807
  24  C 4   px       0.00000   0.00000   0.00000   0.00000   0.00000   0.00000
  25  C 4   py       0.07193   0.08130   0.07583  -0.14906   0.15299   0.11773
  26  C 4   pz       0.04284  -0.08215  -0.17761  -0.03069   0.03750   0.32194
  27  H 2   s        0.01549   0.13609  -0.10423   0.10443  -0.28499  -0.02793
  28  H 3   s        0.01549  -0.13609  -0.10423  -0.10443  -0.28499  -0.02793
  29  H 4   s        0.08838   0.06332   0.15352  -0.21256  -0.07983  -0.26163
  30  H 5   s        0.08838  -0.06332   0.15352   0.21256  -0.07983  -0.26163
                        13        14        15        16        17        18
 eigenvalues:         -0.522    -0.517    -0.482    -0.462    -0.281    -0.233
   1  H 1   s        0.00000   0.00000   0.00000  -0.07223   0.00000   0.00000
   2  N     s        0.00000   0.00000   0.00000   0.01499   0.00000   0.00000
   3  N     s        0.00000   0.00000   0.00000  -0.06921   0.00000   0.00000
   4  N     px       0.00000   0.62496   0.00000   0.00000   0.60272   0.00000
   5  N     py       0.44454   0.00000   0.19329   0.00000   0.00000   0.00000
   6  N     pz       0.00000   0.00000   0.00000  -0.03345   0.00000   0.00000
   7  C 1   s        0.00286   0.00000   0.04304   0.00605   0.00000   0.00000
   8  C 1   s       -0.00908   0.00000  -0.14754  -0.01969   0.00000   0.00000
   9  C 1   px       0.00000   0.33822   0.00000   0.00000  -0.06875   0.58460
  10  C 1   py      -0.39206   0.00000   0.06521   0.11120   0.00000   0.00000
  11  C 1   pz       0.00815   0.00000   0.30181   0.24465   0.00000   0.00000
  12  C 2   s       -0.00286   0.00000  -0.04304   0.00605   0.00000   0.00000
  13  C 2   s        0.00908   0.00000   0.14754  -0.01969   0.00000   0.00000
  14  C 2   px       0.00000   0.33822   0.00000   0.00000  -0.06875  -0.58460
  15  C 2   py      -0.39206   0.00000   0.06521  -0.11120   0.00000   0.00000
  16  C 2   pz      -0.00815   0.00000  -0.30181   0.24465   0.00000   0.00000
  17  C 3   s       -0.02898   0.00000  -0.00508  -0.01399   0.00000   0.00000
  18  C 3   s        0.09404   0.00000   0.02425   0.05476   0.00000   0.00000
  19  C 3   px       0.00000   0.22171   0.00000   0.00000  -0.52215   0.34870
  20  C 3   py       0.00690   0.00000   0.05419  -0.46686   0.00000   0.00000
  21  C 3   pz       0.01936   0.00000  -0.36681  -0.09266   0.00000   0.00000
  22  C 4   s        0.02898   0.00000   0.00508  -0.01399   0.00000   0.00000
  23  C 4   s       -0.09404   0.00000  -0.02425   0.05476   0.00000   0.00000
  24  C 4   px       0.00000   0.22171   0.00000   0.00000  -0.52215  -0.34870
  25  C 4   py       0.00690   0.00000   0.05419   0.46686   0.00000   0.00000
  26  C 4   pz      -0.01936   0.00000   0.36681  -0.09266   0.00000   0.00000
  27  H 2   s       -0.34245   0.00000   0.08129   0.20231   0.00000   0.00000
  28  H 3   s        0.34245   0.00000  -0.08129   0.20231   0.00000   0.00000
  29  H 4   s        0.04114   0.00000   0.32933  -0.17232   0.00000   0.00000
  30  H 5   s       -0.04114   0.00000  -0.32933  -0.17232   0.00000   0.00000
                        19        20        21        22        23
 eigenvalues:          0.322     0.409     0.564     0.643     0.683
   1  H 1   s        0.00000   0.00000   0.94430   0.28193   0.00000
   2  N     s        0.00000   0.00000   0.14015   0.12518   0.00000
   3  N     s        0.00000   0.00000  -0.95614  -0.83228   0.00000
   4  N     px      -0.56655   0.00000   0.00000   0.00000   0.00000
   5  N     py       0.00000   0.00000   0.00000   0.00000   0.43759
   6  N     pz       0.00000   0.00000  -0.40771   0.13986   0.00000
   7  C 1   s        0.00000   0.00000  -0.00132  -0.14644  -0.03006
   8  C 1   s        0.00000   0.00000  -0.03043   0.89628   0.21418
   9  C 1   px       0.65336  -0.44918   0.00000   0.00000   0.00000
  10  C 1   py       0.00000   0.00000  -0.36826   0.07940   0.64473
  11  C 1   pz       0.00000   0.00000   0.09056   0.35631  -0.08155
  12  C 2   s        0.00000   0.00000  -0.00132  -0.14644   0.03006
  13  C 2   s        0.00000   0.00000  -0.03043   0.89628  -0.21418
  14  C 2   px       0.65336   0.44918   0.00000   0.00000   0.00000
  15  C 2   py       0.00000   0.00000   0.36826  -0.07940   0.64473
  16  C 2   pz       0.00000   0.00000   0.09056   0.35631   0.08155
  17  C 3   s        0.00000   0.00000   0.04655   0.00553   0.08192
  18  C 3   s        0.00000   0.00000  -0.28817  -0.01006  -0.49156
  19  C 3   px      -0.34056   0.73321   0.00000   0.00000   0.00000
  20  C 3   py       0.00000   0.00000  -0.11840   0.01123   0.46258
  21  C 3   pz       0.00000   0.00000   0.17169  -0.18868  -0.02265
  22  C 4   s        0.00000   0.00000   0.04655   0.00553  -0.08192
  23  C 4   s        0.00000   0.00000  -0.28817  -0.01006   0.49156
  24  C 4   px      -0.34056  -0.73321   0.00000   0.00000   0.00000
  25  C 4   py       0.00000   0.00000   0.11840  -0.01123   0.46258
  26  C 4   pz       0.00000   0.00000   0.17169  -0.18868   0.02265
  27  H 2   s        0.00000   0.00000   0.29124  -0.72243  -0.63265
  28  H 3   s        0.00000   0.00000   0.29124  -0.72243   0.63265
  29  H 4   s        0.00000   0.00000   0.41132  -0.13419  -0.02160
  30  H 5   s        0.00000   0.00000   0.41132  -0.13419   0.02160
 
          Ground-State Mulliken Net Atomic Charges

     Atom                 Charge (a.u.)
  ----------------------------------------
      1 H                     0.219880
      2 N                    -0.303639
      3 C                     0.018996
      4 C                     0.018996
      5 C                    -0.100165
      6 C                    -0.100165
      7 H                     0.067281
      8 H                     0.067281
      9 H                     0.055767
     10 H                     0.055767
  ----------------------------------------
  Sum of atomic charges =     0.000000

 -----------------------------------------------------------------
                    Cartesian Multipole Moments
 -----------------------------------------------------------------
    Charge (ESU x 10^10)
                 0.0000
    Dipole Moment (Debye)
         X       0.0000      Y       0.0000      Z       1.9116
       Tot       1.9116
    Quadrupole Moments (Debye-Ang)
        XX     -29.6907     XY       0.0000     YY     -25.9146
        XZ       0.0000     YZ       0.0000     ZZ     -23.2951
    Octopole Moments (Debye-Ang^2)
       XXX       0.0000    XXY       0.0000    XYY       0.0000
       YYY       0.0000    XXZ       1.4730    XYZ       0.0000
       YYZ       2.6988    XZZ       0.0000    YZZ       0.0000
       ZZZ      11.6771
    Hexadecapole Moments (Debye-Ang^3)
      XXXX     -23.2382   XXXY       0.0000   XXYY     -36.1556
      XYYY       0.0000   YYYY    -167.8861   XXXZ       0.0000
      XXYZ       0.0000   XYYZ       0.0000   YYYZ       0.0000
      XXZZ     -34.6106   XYZZ       0.0000   YYZZ     -53.2786
      XZZZ       0.0000   YZZZ       0.0000   ZZZZ    -145.4779
 -----------------------------------------------------------------
Archival summary:
1\1\g4noden13\SP\HF\STO-3G\145\g8miquel\WedNov2612:43:372014WedNov2612:43:372014\0\\#,HF,STO-3G,\\0,1\N\H,1,1.01061\C,1,1.37148,2,124.922\H,3,1.08063,1,121.229,2,0,0\C,1,1.37148,2,124.922,3,-180,0\H,5,1.08063,1,121.229,2,0,0\C,3,1.38153,1,107.393,2,-180,0\H,7,1.08153,3,125.606,1,-180,0\C,5,1.38153,1,107.393,2,-180,0\H,9,1.08153,5,125.606,1,-180,0\\HF=-206.224565\\@

 Total job time:  0.89s(wall), 0.24s(cpu) 
 Wed Nov 26 12:43:37 2014

======= MOLDEN-FORMATTED INPUT FILE FOLLOWS =======
[Molden Format]
[Atoms] (Angs)
  H      1    1      0.00000000      0.00000000      2.12929600
  N      2    7      0.00000000      0.00000000      1.11868400
  C      3    6      0.00000000      1.12451600      0.33356500
  C      4    6      0.00000000     -1.12451600      0.33356500
  C      5    6      0.00000000      0.70840700     -0.98380700
  C      6    6      0.00000000     -0.70840700     -0.98380700
  H      7    1      0.00000000      2.11287200      0.77049600
  H      8    1      0.00000000     -2.11287200      0.77049600
  H      9    1      0.00000000      1.35725200     -1.84908500
  H     10    1      0.00000000     -1.35725200     -1.84908500
[GTO]
1    0
S    3    1.000000
   3.42525091E+00    1.54328970E-01 
   6.23913730E-01    5.35328140E-01 
   1.68855400E-01    4.44634540E-01 

2    0
S    3    1.000000
   9.91061690E+01    1.54328970E-01 
   1.80523120E+01    5.35328140E-01 
   4.88566020E+00    4.44634540E-01 
SP   3    1.000000
   3.78045590E+00   -9.99672300E-02   1.55916270E-01 
   8.78496600E-01    3.99512830E-01   6.07683720E-01 
   2.85714400E-01    7.00115470E-01   3.91957390E-01 

3    0
S    3    1.000000
   7.16168370E+01    1.54328970E-01 
   1.30450960E+01    5.35328140E-01 
   3.53051220E+00    4.44634540E-01 
SP   3    1.000000
   2.94124940E+00   -9.99672300E-02   1.55916270E-01 
   6.83483100E-01    3.99512830E-01   6.07683720E-01 
   2.22289900E-01    7.00115470E-01   3.91957390E-01 

4    0
S    3    1.000000
   7.16168370E+01    1.54328970E-01 
   1.30450960E+01    5.35328140E-01 
   3.53051220E+00    4.44634540E-01 
SP   3    1.000000
   2.94124940E+00   -9.99672300E-02   1.55916270E-01 
   6.83483100E-01    3.99512830E-01   6.07683720E-01 
   2.22289900E-01    7.00115470E-01   3.91957390E-01 

5    0
S    3    1.000000
   7.16168370E+01    1.54328970E-01 
   1.30450960E+01    5.35328140E-01 
   3.53051220E+00    4.44634540E-01 
SP   3    1.000000
   2.94124940E+00   -9.99672300E-02   1.55916270E-01 
   6.83483100E-01    3.99512830E-01   6.07683720E-01 
   2.22289900E-01    7.00115470E-01   3.91957390E-01 

6    0
S    3    1.000000
   7.16168370E+01    1.54328970E-01 
   1.30450960E+01    5.35328140E-01 
   3.53051220E+00    4.44634540E-01 
SP   3    1.000000
   2.94124940E+00   -9.99672300E-02   1.55916270E-01 
   6.83483100E-01    3.99512830E-01   6.07683720E-01 
   2.22289900E-01    7.00115470E-01   3.91957390E-01 

7    0
S    3    1.000000
   3.42525091E+00    1.54328970E-01 
   6.23913730E-01    5.35328140E-01 
   1.68855400E-01    4.44634540E-01 

8    0
S    3    1.000000
   3.42525091E+00    1.54328970E-01 
   6.23913730E-01    5.35328140E-01 
   1.68855400E-01    4.44634540E-01 

9    0
S    3    1.000000
   3.42525091E+00    1.54328970E-01 
   6.23913730E-01    5.35328140E-01 
   1.68855400E-01    4.44634540E-01 

10    0
S    3    1.000000
   3.42525091E+00    1.54328970E-01 
   6.23913730E-01    5.35328140E-01 
   1.68855400E-01    4.44634540E-01 

[MO]
Sym=X
Ene= -15.409499
Spin=Alpha
Occup=1
     1   -6.433029883844e-03
     2    9.932340786861e-01
     3    3.294722844300e-02
     4    2.881045033832e-16
     5    6.212909144743e-16
     6   -1.087271738837e-03
     7    4.825367327384e-04
     8   -6.114531688667e-03
     9    5.444530181617e-16
    10    3.924131364996e-03
    11   -2.680629727322e-03
    12    4.825367327378e-04
    13   -6.114531688667e-03
    14    5.372840636414e-16
    15   -3.924131364997e-03
    16   -2.680629727322e-03
    17    3.787020896108e-06
    18    4.030328095155e-04
    19   -7.042883824415e-17
    20   -4.479543224126e-05
    21    2.629147463040e-04
    22    3.787020897933e-06
    23    4.030328095143e-04
    24   -1.023376494648e-15
    25    4.479543223995e-05
    26    2.629147463037e-04
    27    2.417208472499e-04
    28    2.417208472500e-04
    29   -4.124556575659e-05
    30   -4.124556575663e-05
Sym=X
Ene= -11.037660
Spin=Alpha
Occup=1
     1   -3.767206752067e-14
     2    5.739529049857e-14
     3   -8.990493947052e-13
     4    1.781049338066e-16
     5    4.537137558066e-03
     6    3.017969522632e-13
     7   -7.015716396303e-01
     8   -2.515774029650e-02
     9   -1.862351180546e-16
    10    1.690514208021e-03
    11    3.671223882229e-04
    12    7.015716397765e-01
    13    2.515774030166e-02
    14   -3.794860112619e-16
    15    1.690514208229e-03
    16   -3.671223882625e-04
    17   -4.037258695372e-03
    18    4.966513490871e-03
    19    3.040482042424e-16
    20    1.046326471842e-03
    21    2.787744212956e-03
    22    4.037258696024e-03
    23   -4.966513491873e-03
    24    4.221780821797e-16
    25    1.046326472026e-03
    26   -2.787744213609e-03
    27    4.565241991566e-03
    28   -4.565241992557e-03
    29   -1.427158416459e-04
    30    1.427158416368e-04
Sym=X
Ene= -11.037443
Spin=Alpha
Occup=1
     1   -3.628504814676e-04
     2    5.383674694813e-04
     3   -8.615334239830e-03
     4    4.570183691720e-17
     5   -4.723240915262e-13
     6    2.893229121883e-03
     7    7.017216580785e-01
     8    2.480926442594e-02
     9   -9.356852719870e-17
    10   -9.956370458765e-04
    11   -1.914396608882e-04
    12    7.017216579323e-01
    13    2.480926442069e-02
    14   -3.454712998549e-17
    15    9.956370455237e-04
    16   -1.914396608121e-04
    17    2.423829832259e-03
    18   -4.828343349901e-03
    19    1.116285742461e-16
    20   -8.875078610465e-04
    21   -3.136092251350e-03
    22    2.423829831221e-03
    23   -4.828343348874e-03
    24    3.438409319979e-16
    25    8.875078608283e-04
    26   -3.136092250769e-03
    27   -4.760325356822e-03
    28   -4.760325355870e-03
    29   -4.018907435106e-05
    30   -4.018907438009e-05
Sym=X
Ene= -10.986696
Spin=Alpha
Occup=1
     1   -1.285827619137e-04
     2    4.134877147319e-05
     3    4.082134957832e-04
     4   -1.495121595317e-16
     5    1.555193318147e-14
     6    1.295318755456e-04
     7   -1.831427455264e-03
     8   -5.264049542147e-03
     9    2.584893599966e-16
    10    1.127350290006e-03
    11    3.114893163861e-03
    12   -1.831427454751e-03
    13   -5.264049541143e-03
    14    1.240484605259e-16
    15   -1.127350289857e-03
    16    3.114893163281e-03
    17    7.018367474624e-01
    18    2.096021744205e-02
    19   -3.551434581790e-16
    20    2.539389577309e-03
    21    1.452042494385e-03
    22    7.018367473342e-01
    23    2.096021743643e-02
    24   -3.063558218663e-16
    25   -2.539389578011e-03
    26    1.452042494134e-03
    27    2.057592695158e-05
    28    2.057592691877e-05
    29   -4.621772240987e-03
    30   -4.621772240116e-03
Sym=X
Ene= -10.986536
Spin=Alpha
Occup=1
     1   -1.196081333477e-14
     2    3.094092348191e-15
     3    3.540885456615e-14
     4   -1.175212929001e-16
     5   -1.831910826970e-04
     6    1.352929812452e-14
     7    3.613854414170e-03
     8    5.511511762651e-03
     9   -9.551111386012e-16
    10   -8.149345984040e-04
    11   -3.172380096584e-03
    12   -3.613854414309e-03
    13   -5.511511763602e-03
    14   -3.379710690669e-16
    15   -8.149345986086e-04
    16    3.172380097152e-03
    17   -7.012475386498e-01
    18   -3.075937846734e-02
    19    8.928691395052e-16
    20    3.830235402900e-03
    21   -1.375926765547e-03
    22    7.012475387781e-01
    23    3.075937847117e-02
    24    4.506129997391e-16
    25    3.830235402438e-03
    26    1.375926765810e-03
    27   -1.845470157501e-04
    28    1.845470157526e-04
    29    4.763557168520e-03
    30   -4.763557169364e-03
Sym=X
Ene= -1.225058
Spin=Alpha
Occup=1
     1    9.872270649445e-02
     2   -1.919805689377e-01
     3    6.209198424669e-01
     4   -2.466177056809e-16
     5   -2.685829667394e-15
     6   -6.453536940255e-02
     7   -9.603053308513e-02
     8    2.162185861908e-01
     9    4.813447132464e-17
    10   -8.655039991572e-02
    11    2.587991124734e-02
    12   -9.603053308514e-02
    13    2.162185861908e-01
    14   -8.635887681084e-17
    15    8.655039991573e-02
    16    2.587991124734e-02
    17   -4.996753535993e-02
    18    1.125309343880e-01
    19   -1.634681120363e-16
    20   -1.723835920735e-02
    21    4.500050938028e-02
    22   -4.996753535993e-02
    23    1.125309343880e-01
    24   -3.965514266652e-16
    25    1.723835920735e-02
    26    4.500050938028e-02
    27    3.326796543449e-02
    28    3.326796543449e-02
    29    1.416596807199e-02
    30    1.416596807199e-02
Sym=X
Ene= -0.975717
Spin=Alpha
Occup=1
     1   -1.524749763487e-01
     2    1.066250488685e-01
     3   -3.864269388952e-01
     4    1.131346945249e-15
     5   -4.125294398617e-15
     6   -1.277408536625e-01
     7   -4.238860100038e-02
     8    1.120374411319e-01
     9   -2.521697671220e-15
    10   -6.966220357976e-04
    11   -1.403798661231e-01
    12   -4.238860100039e-02
    13    1.120374411320e-01
    14   -6.406703625559e-16
    15    6.966220357979e-04
    16   -1.403798661231e-01
    17   -1.467061535022e-01
    18    3.832186041263e-01
    19   -2.743470296770e-16
    20   -7.192532169250e-02
    21    4.284103326441e-02
    22   -1.467061535022e-01
    23    3.832186041263e-01
    24    5.951789233177e-16
    25    7.192532169249e-02
    26    4.284103326441e-02
    27    1.549302170220e-02
    28    1.549302170221e-02
    29    8.837832873750e-02
    30    8.837832873751e-02
Sym=X
Ene= -0.912007
Spin=Alpha
Occup=1
     1   -8.107663845847e-16
     2    2.094295738350e-15
     3   -9.547362358163e-15
     4    3.464999356603e-15
     5    2.587575717263e-01
     6   -2.332552553885e-15
     7   -1.537015349263e-01
     8    4.300989687949e-01
     9   -6.444787638947e-15
    10   -1.057681542368e-02
    11   -1.484672218295e-02
    12    1.537015349263e-01
    13   -4.300989687949e-01
    14   -1.603994925425e-15
    15   -1.057681542368e-02
    16    1.484672218293e-02
    17   -7.921431802090e-02
    18    2.169970071578e-01
    19   -2.157586060538e-16
    20    8.129689544485e-02
    21    8.214574990093e-02
    22    7.921431802089e-02
    23   -2.169970071578e-01
    24    2.443137330093e-15
    25    8.129689544486e-02
    26   -8.214574990092e-02
    27    1.360880270851e-01
    28   -1.360880270851e-01
    29    6.332461591562e-02
    30   -6.332461591561e-02
Sym=X
Ene= -0.733165
Spin=Alpha
Occup=1
     1    3.097305511571e-01
     2   -4.083119740432e-02
     3    1.606802557661e-01
     4    1.765631201039e-15
     5    1.989384948008e-14
     6    3.937619570964e-01
     7    8.456314072641e-02
     8   -2.539694788479e-01
     9    3.710543002266e-16
    10    8.325871870215e-03
    11   -7.467096671554e-03
    12    8.456314072641e-02
    13   -2.539694788480e-01
    14    8.997680086607e-16
    15   -8.325871870211e-03
    16   -7.467096671588e-03
    17   -7.855541802306e-02
    18    2.422532800285e-01
    19    2.370932770799e-15
    20   -7.582502835177e-02
    21   -1.776117786751e-01
    22   -7.855541802307e-02
    23    2.422532800285e-01
    24    2.149474843705e-15
    25    7.582502835175e-02
    26   -1.776117786751e-01
    27   -1.042320200912e-01
    28   -1.042320200912e-01
    29    1.535198165832e-01
    30    1.535198165833e-01
Sym=X
Ene= -0.704663
Spin=Alpha
Occup=1
     1   -2.417358847817e-14
     2   -2.772576005589e-16
     3    6.960306896814e-16
     4    2.878158121295e-16
     5    3.253595281846e-01
     6   -3.849091184671e-14
     7   -3.523572590763e-02
     8    1.084121913459e-01
     9   -3.010691210111e-15
    10   -4.324072978770e-03
    11    2.529868569095e-01
    12    3.523572590763e-02
    13   -1.084121913459e-01
    14   -9.168411680622e-16
    15   -4.324072978741e-03
    16   -2.529868569095e-01
    17    1.119001701661e-01
    18   -3.339308913813e-01
    19   -1.552684766452e-15
    20   -1.490634880165e-01
    21    3.069188721730e-02
    22   -1.119001701661e-01
    23    3.339308913812e-01
    24    7.263210716797e-16
    25   -1.490634880165e-01
    26   -3.069188721727e-02
    27    1.044270258402e-01
    28   -1.044270258402e-01
    29   -2.125614989849e-01
    30    2.125614989849e-01
Sym=X
Ene= -0.681609
Spin=Alpha
Occup=1
     1   -1.186370356828e-01
     2   -3.534925524078e-02
     3    1.387729933180e-01
     4   -1.156473181635e-15
     5   -2.750230598814e-14
     6   -2.422177634490e-01
     7    6.856348123258e-02
     8   -2.266725636692e-01
     9    1.010212247021e-15
    10   -2.905925362829e-01
    11   -3.472672077618e-02
    12    6.856348123257e-02
    13   -2.266725636692e-01
    14    7.517970310503e-17
    15    2.905925362829e-01
    16   -3.472672077615e-02
    17    4.335672506928e-04
    18   -1.400314875232e-02
    19    3.101238869005e-17
    20   -1.529892443508e-01
    21    3.750425406201e-02
    22    4.335672507020e-04
    23   -1.400314875235e-02
    24   -7.914525466931e-17
    25    1.529892443508e-01
    26    3.750425406202e-02
    27   -2.849902974050e-01
    28   -2.849902974050e-01
    29   -7.983454711033e-02
    30   -7.983454711035e-02
Sym=X
Ene= -0.527823
Spin=Alpha
Occup=1
     1    3.023054147989e-01
     2    3.462376786819e-02
     3   -1.585231346527e-01
     4   -6.029495907277e-15
     5   -3.463573286684e-14
     6    3.903194367373e-01
     7   -6.471548834889e-03
     8    1.209984338063e-02
     9   -1.215121277422e-14
    10    4.214642246059e-02
    11   -2.303194864180e-01
    12   -6.471548834891e-03
    13    1.209984338064e-02
    14   -6.180861332598e-15
    15   -4.214642246054e-02
    16   -2.303194864180e-01
    17   -1.430103672638e-02
    18    3.806885080329e-02
    19   -5.246514366890e-15
    20   -1.177255547265e-01
    21    3.219366961742e-01
    22   -1.430103672639e-02
    23    3.806885080330e-02
    24   -4.285905384357e-16
    25    1.177255547265e-01
    26    3.219366961742e-01
    27   -2.793186889610e-02
    28   -2.793186889614e-02
    29   -2.616321345491e-01
    30   -2.616321345491e-01
Sym=X
Ene= -0.521670
Spin=Alpha
Occup=1
     1    2.018823747497e-14
     2    9.468303690998e-16
     3   -5.805760332125e-15
     4    6.358394088021e-14
     5    4.445408070486e-01
     6    2.282419045430e-14
     7    2.855520188730e-03
     8   -9.079740274598e-03
     9    3.391884616679e-14
    10   -3.920622509485e-01
    11    8.150623770337e-03
    12   -2.855520188728e-03
    13    9.079740274590e-03
    14    3.521134975669e-14
    15   -3.920622509485e-01
    16   -8.150623770366e-03
    17   -2.897898199071e-02
    18    9.404265654143e-02
    19    2.315572507949e-14
    20    6.902983022826e-03
    21    1.936133391971e-02
    22    2.897898199071e-02
    23   -9.404265654143e-02
    24    2.325853732486e-14
    25    6.902983022853e-03
    26   -1.936133391966e-02
    27   -3.424512792274e-01
    28    3.424512792274e-01
    29    4.114105345920e-02
    30   -4.114105345924e-02
Sym=X
Ene= -0.517237
Spin=Alpha
Occup=1
     1    3.350587464408e-15
     2    7.567985230279e-16
     3   -3.150630149189e-15
     4    6.249610703902e-01
     5   -4.454389414858e-14
     6    5.544695183872e-15
     7   -1.232107747268e-15
     8    2.408108482143e-15
     9    3.382217581973e-01
    10    4.023290274372e-14
    11   -3.774856606521e-15
    12    1.375316061203e-16
    13   -7.687372558523e-16
    14    3.382217581973e-01
    15    3.888120049578e-14
    16   -2.744118926855e-15
    17    3.043751746990e-15
    18   -9.369853814539e-15
    19    2.217146062065e-01
    20   -3.122869742358e-15
    21    4.473927452717e-15
    22   -3.224997788444e-15
    23    1.046723184901e-14
    24    2.217146062065e-01
    25    1.755576798361e-15
    26    7.049709038298e-15
    27    3.582495301184e-14
    28   -3.468461031792e-14
    29   -1.047488424605e-14
    30   -1.523138092136e-16
Sym=X
Ene= -0.481575
Spin=Alpha
Occup=1
     1    4.892408093232e-15
     2   -3.201649015350e-16
     3    2.245057438566e-15
     4   -5.383402734514e-16
     5    1.932944364009e-01
     6    4.996220451248e-15
     7    4.303794026445e-02
     8   -1.475424335304e-01
     9    1.108851836045e-15
    10    6.521218836860e-02
    11    3.018126153311e-01
    12   -4.303794026446e-02
    13    1.475424335304e-01
    14    5.778430996631e-16
    15    6.521218836861e-02
    16   -3.018126153311e-01
    17   -5.081215572893e-03
    18    2.425168396237e-02
    19    1.789856138497e-15
    20    5.418736804165e-02
    21   -3.668089582547e-01
    22    5.081215572894e-03
    23   -2.425168396237e-02
    24    5.773174648213e-17
    25    5.418736804163e-02
    26    3.668089582547e-01
    27    8.128589313784e-02
    28   -8.128589313785e-02
    29    3.293263492350e-01
    30   -3.293263492350e-01
Sym=X
Ene= -0.461830
Spin=Alpha
Occup=1
     1   -7.222863903092e-02
     2    1.499023001423e-02
     3   -6.921330605528e-02
     4   -3.623450937456e-15
     5    8.345700432816e-15
     6   -3.345199999293e-02
     7    6.050916096042e-03
     8   -1.969308438915e-02
     9    5.155928270193e-15
    10    1.111951063947e-01
    11    2.446502988371e-01
    12    6.050916096042e-03
    13   -1.969308438915e-02
    14   -6.821758888528e-16
    15   -1.111951063947e-01
    16    2.446502988371e-01
    17   -1.398558864721e-02
    18    5.475613271729e-02
    19   -1.428554827638e-15
    20   -4.668598573136e-01
    21   -9.266083287139e-02
    22   -1.398558864720e-02
    23    5.475613271728e-02
    24   -2.828720029681e-15
    25    4.668598573136e-01
    26   -9.266083287137e-02
    27    2.023064451823e-01
    28    2.023064451823e-01
    29   -1.723242403701e-01
    30   -1.723242403701e-01
Sym=X
Ene= -0.280696
Spin=Alpha
Occup=1
     1    3.259629180327e-18
     2   -2.609925422836e-16
     3    5.140714118363e-16
     4    6.027243713342e-01
     5   -1.799178973925e-16
     6   -6.369702934513e-16
     7    7.093922845050e-16
     8   -1.102220868465e-15
     9   -6.875141109869e-02
    10   -4.805159190707e-17
    11    7.489088495481e-16
    12   -1.805264408121e-16
    13    6.559460644943e-16
    14   -6.875141109875e-02
    15    1.625291542444e-16
    16    3.727688849289e-16
    17   -3.750377423482e-16
    18    6.857115589075e-17
    19   -5.221544758018e-01
    20    2.848264031312e-16
    21   -1.949395734661e-15
    22    9.920072022576e-17
    23   -2.618205784623e-16
    24   -5.221544758019e-01
    25   -1.744920883685e-16
    26    2.764803896343e-17
    27   -1.323702724481e-15
    28   -1.616686584764e-16
    29    1.577229098103e-15
    30   -2.240794141173e-17
Sym=X
Ene= -0.232791
Spin=Alpha
Occup=1
     1    1.041970427513e-15
     2    2.626692337597e-16
     3   -7.349400968207e-16
     4   -2.246119956695e-14
     5    1.889372256922e-16
     6    3.035065417765e-15
     7   -8.507311592249e-16
     8    2.759509442323e-15
     9    5.845994063495e-01
    10   -1.548650352559e-15
    11   -1.977083787267e-15
    12    5.537496328723e-16
    13   -1.559809102997e-15
    14   -5.845994063495e-01
    15   -5.749188910389e-16
    16   -4.675886900228e-15
    17    7.999360743039e-17
    18   -1.094214908058e-15
    19    3.486994529842e-01
    20    2.629124164446e-15
    21    3.761667803660e-15
    22   -1.800837315790e-16
    23    4.683663347354e-16
    24   -3.486994529841e-01
    25    7.929017639922e-16
    26   -1.003954413164e-16
    27    2.878738823905e-16
    28   -4.529002756162e-16
    29   -1.180139757426e-16
    30    7.190295625980e-17
Sym=X
Ene= 0.322429
Spin=Alpha
Occup=0
     1   -6.347257156109e-16
     2    3.200224321905e-17
     3    8.743392649241e-16
     4   -5.665454506206e-01
     5   -1.596228257967e-15
     6    4.131214952073e-15
     7   -1.470963392963e-15
     8    2.003480874167e-15
     9    6.533617027180e-01
    10   -3.505462754199e-15
    11   -1.641652272563e-15
    12    1.268658515523e-15
    13   -5.536018696477e-15
    14    6.533617027180e-01
    15   -1.124308812224e-15
    16   -7.461803436341e-15
    17    3.097006771015e-16
    18   -4.973064106336e-15
    19   -3.405628710078e-01
    20    3.737314637971e-15
    21    7.332560427876e-15
    22   -5.357857659505e-16
    23    2.521009085428e-15
    24   -3.405628710078e-01
    25    3.391295273456e-15
    26   -4.107947064467e-16
    27    3.284468160518e-15
    28    1.665811664404e-15
    29    4.826086276082e-15
    30   -4.877959275108e-17
Sym=X
Ene= 0.408590
Spin=Alpha
Occup=0
     1    2.317950234403e-16
     2    1.483736160931e-16
     3    8.734422723330e-17
     4    1.685695853737e-14
     5    7.421020000819e-17
     6   -5.535811891469e-16
     7    2.027262520913e-16
     8    1.152954736748e-15
     9   -4.491802822210e-01
    10    3.808511258366e-16
    11   -3.112253525585e-16
    12   -2.063516588813e-16
    13    1.313932486074e-15
    14    4.491802822210e-01
    15   -6.429665486550e-16
    16   -6.115594007385e-16
    17    1.189095645553e-16
    18    1.136655390260e-16
    19    7.332059897967e-01
    20    8.353204071501e-16
    21   -1.336853609935e-15
    22   -2.101740291750e-17
    23    1.270401644423e-16
    24   -7.332059897967e-01
    25    6.773242995965e-16
    26   -1.071395374717e-15
    27   -1.355007426690e-15
    28   -9.844081825325e-16
    29   -1.621177512123e-15
    30   -6.804495452352e-16
Sym=X
Ene= 0.564072
Spin=Alpha
Occup=0
     1    9.443012450367e-01
     2    1.401476537627e-01
     3   -9.561352764107e-01
     4    3.776921208495e-16
     5    1.739209362465e-15
     6   -4.077093327555e-01
     7   -1.318853298508e-03
     8   -3.042794583356e-02
     9   -9.318235558103e-16
    10   -3.682604084787e-01
    11    9.055893374375e-02
    12   -1.318853298509e-03
    13   -3.042794583356e-02
    14   -3.300102429823e-16
    15    3.682604084787e-01
    16    9.055893374376e-02
    17    4.655106833836e-02
    18   -2.881659303941e-01
    19    1.066510416582e-15
    20   -1.184030936342e-01
    21    1.716918885651e-01
    22    4.655106833836e-02
    23   -2.881659303940e-01
    24   -5.921013774410e-16
    25    1.184030936342e-01
    26    1.716918885650e-01
    27    2.912418337370e-01
    28    2.912418337370e-01
    29    4.113155318884e-01
    30    4.113155318883e-01
Sym=X
Ene= 0.643272
Spin=Alpha
Occup=0
     1    2.819342713337e-01
     2    1.251834952476e-01
     3   -8.322819804662e-01
     4   -2.334935665207e-15
     5    4.083803336729e-14
     6    1.398640400210e-01
     7   -1.464373171188e-01
     8    8.962799473108e-01
     9    4.175018689971e-15
    10    7.940117251963e-02
    11    3.563068646715e-01
    12   -1.464373171188e-01
    13    8.962799473107e-01
    14    1.441452606213e-15
    15   -7.940117251953e-02
    16    3.563068646715e-01
    17    5.528845107241e-03
    18   -1.005749104422e-02
    19   -2.599658862715e-15
    20    1.123495484584e-02
    21   -1.886759931111e-01
    22    5.528845107226e-03
    23   -1.005749104413e-02
    24   -5.686687195883e-16
    25   -1.123495484578e-02
    26   -1.886759931111e-01
    27   -7.224324901397e-01
    28   -7.224324901396e-01
    29   -1.341855384846e-01
    30   -1.341855384846e-01
Sym=X
Ene= 0.682532
Spin=Alpha
Occup=0
     1   -2.455137330416e-13
     2   -6.931942304509e-15
     3    5.112530949807e-14
     4   -1.242261868216e-16
     5    4.375879784234e-01
     6    2.330102799077e-13
     7   -3.005698727688e-02
     8    2.141801771701e-01
     9    5.863669631901e-16
    10    6.447317353241e-01
    11   -8.154678307906e-02
    12    3.005698727690e-02
    13   -2.141801771702e-01
    14   -1.851938121928e-16
    15    6.447317353242e-01
    16    8.154678307927e-02
    17    8.192315047706e-02
    18   -4.915605047837e-01
    19   -4.705174752263e-16
    20    4.625764943095e-01
    21   -2.264831485701e-02
    22   -8.192315047704e-02
    23    4.915605047836e-01
    24   -1.030374821013e-16
    25    4.625764943096e-01
    26    2.264831485740e-02
    27   -6.326473210204e-01
    28    6.326473210205e-01
    29   -2.159733640419e-02
    30    2.159733640459e-02

======= END OF MOLDEN-FORMATTED INPUT FILE =======


        *************************************************************
        *                                                           *
        *  Thank you very much for using Q-Chem.  Have a nice day.  *
        *                                                           *
        *************************************************************


