aeria.local 10.0.1
Q-Chem Developer Version! Running on 10.0.1.*
                  Welcome to Q-Chem
     A Quantum Leap Into The Future Of Chemistry


 Q-Chem 5.1, Q-Chem, Inc., Pleasanton, CA (2018)

 Yihan Shao,  Zhengting Gan,  E. Epifanovsky,  A. T. B. Gilbert,  M. Wormit,  
 J. Kussmann,  A. W. Lange,  A. Behn,  Jia Deng,  Xintian Feng,  D. Ghosh,  
 M. Goldey,  P. R. Horn,  L. D. Jacobson,  I. Kaliman,  T. Kus,  A. Landau,  
 Jie Liu,  E. I. Proynov,  R. M. Richard,  R. P. Steele,  E. J. Sundstrom,  
 H. L. Woodcock III,  P. M. Zimmerman,  D. Zuev,  B. Albrecht,  E. Alguire,  
 S. A. Baeppler,  D. Barton,  Z. Benda,  Y. A. Bernard,  E. J. Berquist,  
 K. B. Bravaya,  H. Burton,  D. Casanova,  Chun-Min Chang,  Yunqing Chen,  
 A. Chien,  K. D. Closser,  M. P. Coons,  S. Coriani,  S. Dasgupta,  
 A. L. Dempwolff,  M. Diedenhofen,  Hainam Do,  R. G. Edgar,  Po-Tung Fang,  
 S. Faraji,  S. Fatehi,  Qingguo Feng,  K. D. Fenk,  J. Fosso-Tande,  
 Qinghui Ge,  A. Ghysels,  G. Gidofalvi,  J. Gomes,  J. Gonthier,  A. Gunina,  
 D. Hait,  M. W. D. Hanson-Heine,  P. H. P. Harbach,  A. W. Hauser,  
 J. E. Herr,  E. G. Hohenstein,  Z. C. Holden,  Kerwin Hui,  B. C. Huynh,  
 T.-C. Jagau,  Hyunjun Ji,  B. Kaduk,  K. Khistyaev,  Jaehoon Kim,  
 P. Klunzinger,  K. Koh,  D. Kosenkov,  L. Koulias,  T. Kowalczyk,  
 C. M. Krauter,  A. Kunitsa,  Ka Un Lao,  A. Laurent,  K. V. Lawler,  
 Joonho Lee,  D. Lefrancois,  S. Lehtola,  D. S. Levine,  Yi-Pei Li,  
 You-Sheng Lin,  Fenglai Liu,  E. Livshits,  A. Luenser,  P. Manohar,  
 E. Mansoor,  S. F. Manzer,  Shan-Ping Mao,  Yuezhi Mao,  N. Mardirossian,  
 A. V. Marenich,  T. Markovich,  L. A. Martinez-Martinez,  S. A. Maurer,  
 N. J. Mayhall,  S. C. McKenzie,  J.-M. Mewes,  A. F. Morrison,  
 J. W. Mullinax,  K. Nanda,  T. S. Nguyen-Beck,  R. Olivares-Amaya,  
 J. A. Parkhill,  T. M. Perrine,  F. Plasser,  P. Pokhilko,  S. Prager,  
 A. Prociuk,  E. Ramos,  D. R. Rehn,  F. Rob,  M. Schneider,  N. Sergueev,  
 S. M. Sharada,  S. Sharma,  D. W. Small,  T. Stauch,  T. Stein,  
 Yu-Chuan Su,  A. J. W. Thom,  A. Tkatchenko,  T. Tsuchimochi,  N. M. Tubman,  
 L. Vogt,  M. L. Vidal,  O. Vydrov,  M. A. Watson,  J. Wenzel,  
 M. de Wergifosse,  T. A. Wesolowski,  A. White,  J. Witte,  A. Yamada,  
 Jun Yang,  K. Yao,  S. Yeganeh,  S. R. Yost,  Zhi-Qiang You,  A. Zech,  
 Igor Ying Zhang,  Xing Zhang,  Yan Zhao,  Ying Zhu,  B. R. Brooks,  
 G. K. L. Chan,  C. J. Cramer,  M. S. Gordon,  W. J. Hehre,  A. Klamt,  
 M. W. Schmidt,  C. D. Sherrill,  D. G. Truhlar,  A. Aspuru-Guzik,  R. Baer,  
 A. T. Bell,  N. A. Besley,  Jeng-Da Chai,  R. A. DiStasio Jr.,  A. Dreuw,  
 B. D. Dunietz,  T. R. Furlani,  Chao-Ping Hsu,  Yousung Jung,  Jing Kong,  
 D. S. Lambrecht,  WanZhen Liang,  C. Ochsenfeld,  V. A. Rassolov,  
 L. V. Slipchenko,  J. E. Subotnik,  T. Van Voorhis,  J. M. Herbert,  
 A. I. Krylov,  P. M. W. Gill,  M. Head-Gordon

 Contributors to earlier versions of Q-Chem not listed above: 
 R. D. Adamson,  B. Austin,  J. Baker,  G. J. O. Beran,  K. Brandhorst,  
 S. T. Brown,  E. F. C. Byrd,  A. K. Chakraborty,  C.-L. Cheng,  
 Siu Hung Chien,  D. M. Chipman,  D. L. Crittenden,  H. Dachsel,  
 R. J. Doerksen,  A. D. Dutoi,  L. Fusti-Molnar,  W. A. Goddard III,  
 A. Golubeva-Zadorozhnaya,  S. R. Gwaltney,  G. Hawkins,  A. Heyden,  
 S. Hirata,  G. Kedziora,  F. J. Keil,  C. Kelley,  Jihan Kim,  R. A. King,  
 R. Z. Khaliullin,  P. P. Korambath,  W. Kurlancheek,  A. M. Lee,  M. S. Lee,  
 S. V. Levchenko,  Ching Yeh Lin,  D. Liotard,  R. C. Lochan,  I. Lotan,  
 P. E. Maslen,  N. Nair,  D. P. O'Neill,  D. Neuhauser,  E. Neuscamman,  
 C. M. Oana,  R. Olson,  B. Peters,  R. Peverati,  P. A. Pieniazek,  
 Y. M. Rhee,  J. Ritchie,  M. A. Rohrdanz,  E. Rosta,  N. J. Russ,  
 H. F. Schaefer III,  N. E. Schultz,  N. Shenvi,  A. C. Simmonett,  A. Sodt,  
 D. Stuck,  K. S. Thanthiriwatte,  V. Vanovschi,  Tao Wang,  A. Warshel,  
 C. F. Williams,  Q. Wu,  X. Xu,  W. Zhang

 Please cite Q-Chem as follows:
 Y. Shao et al., Mol. Phys. 113, 184-215 (2015)
 DOI: 10.1080/00268976.2014.952696

 Q-Chem 5.1.0 for Mac (Intel) OS X

 Parts of Q-Chem use Armadillo 8.300.2 (Tropical Shenanigans).
 http://arma.sourceforge.net/

 Q-Chem begins on Tue Sep  4 23:51:58 2018  

Host: Aeria.local
0

     Scratch files written to /Users/abel/Scratch/export/qchem93673//
Input Ideriv = 2
Curr. Ideriv = -1
Max.  Ideriv = 2

Checking the input file for inconsistencies... 	...done.

--------------------------------------------------------------
User input:
--------------------------------------------------------------
aeria.local 10.0.1
Q-Chem Developer Version! Running on 10.0.1.*
                  Welcome to Q-Chem
     A Quantum Leap Into The Future Of Chemistry


 Q-Chem 5.1, Q-Chem, Inc., Pleasanton, CA (2018)

 Yihan Shao,  Zhengting Gan,  E. Epifanovsky,  A. T. B. Gilbert,  M. Wormit,  
 J. Kussmann,  A. W. Lange,  A. Behn,  Jia Deng,  Xintian Feng,  D. Ghosh,  
 M. Goldey,  P. R. Horn,  L. D. Jacobson,  I. Kaliman,  T. Kus,  A. Landau,  
 Jie Liu,  E. I. Proynov,  R. M. Richard,  R. P. Steele,  E. J. Sundstrom,  
 H. L. Woodcock III,  P. M. Zimmerman,  D. Zuev,  B. Albrecht,  E. Alguire,  
 S. A. Baeppler,  D. Barton,  Z. Benda,  Y. A. Bernard,  E. J. Berquist,  
 K. B. Bravaya,  H. Burton,  D. Casanova,  Chun-Min Chang,  Yunqing Chen,  
 A. Chien,  K. D. Closser,  M. P. Coons,  S. Coriani,  S. Dasgupta,  
 A. L. Dempwolff,  M. Diedenhofen,  Hainam Do,  R. G. Edgar,  Po-Tung Fang,  
 S. Faraji,  S. Fatehi,  Qingguo Feng,  K. D. Fenk,  J. Fosso-Tande,  
 Qinghui Ge,  A. Ghysels,  G. Gidofalvi,  J. Gomes,  J. Gonthier,  A. Gunina,  
 D. Hait,  M. W. D. Hanson-Heine,  P. H. P. Harbach,  A. W. Hauser,  
 J. E. Herr,  E. G. Hohenstein,  Z. C. Holden,  Kerwin Hui,  B. C. Huynh,  
 T.-C. Jagau,  Hyunjun Ji,  B. Kaduk,  K. Khistyaev,  Jaehoon Kim,  
 P. Klunzinger,  K. Koh,  D. Kosenkov,  L. Koulias,  T. Kowalczyk,  
 C. M. Krauter,  A. Kunitsa,  Ka Un Lao,  A. Laurent,  K. V. Lawler,  
 Joonho Lee,  D. Lefrancois,  S. Lehtola,  D. S. Levine,  Yi-Pei Li,  
 You-Sheng Lin,  Fenglai Liu,  E. Livshits,  A. Luenser,  P. Manohar,  
 E. Mansoor,  S. F. Manzer,  Shan-Ping Mao,  Yuezhi Mao,  N. Mardirossian,  
 A. V. Marenich,  T. Markovich,  L. A. Martinez-Martinez,  S. A. Maurer,  
 N. J. Mayhall,  S. C. McKenzie,  J.-M. Mewes,  A. F. Morrison,  
 J. W. Mullinax,  K. Nanda,  T. S. Nguyen-Beck,  R. Olivares-Amaya,  
 J. A. Parkhill,  T. M. Perrine,  F. Plasser,  P. Pokhilko,  S. Prager,  
 A. Prociuk,  E. Ramos,  D. R. Rehn,  F. Rob,  M. Schneider,  N. Sergueev,  
 S. M. Sharada,  S. Sharma,  D. W. Small,  T. Stauch,  T. Stein,  
 Yu-Chuan Su,  A. J. W. Thom,  A. Tkatchenko,  T. Tsuchimochi,  N. M. Tubman,  
 L. Vogt,  M. L. Vidal,  O. Vydrov,  M. A. Watson,  J. Wenzel,  
 M. de Wergifosse,  T. A. Wesolowski,  A. White,  J. Witte,  A. Yamada,  
 Jun Yang,  K. Yao,  S. Yeganeh,  S. R. Yost,  Zhi-Qiang You,  A. Zech,  
 Igor Ying Zhang,  Xing Zhang,  Yan Zhao,  Ying Zhu,  B. R. Brooks,  
 G. K. L. Chan,  C. J. Cramer,  M. S. Gordon,  W. J. Hehre,  A. Klamt,  
 M. W. Schmidt,  C. D. Sherrill,  D. G. Truhlar,  A. Aspuru-Guzik,  R. Baer,  
 A. T. Bell,  N. A. Besley,  Jeng-Da Chai,  R. A. DiStasio Jr.,  A. Dreuw,  
 B. D. Dunietz,  T. R. Furlani,  Chao-Ping Hsu,  Yousung Jung,  Jing Kong,  
 D. S. Lambrecht,  WanZhen Liang,  C. Ochsenfeld,  V. A. Rassolov,  
 L. V. Slipchenko,  J. E. Subotnik,  T. Van Voorhis,  J. M. Herbert,  
 A. I. Krylov,  P. M. W. Gill,  M. Head-Gordon

 Contributors to earlier versions of Q-Chem not listed above: 
 R. D. Adamson,  B. Austin,  J. Baker,  G. J. O. Beran,  K. Brandhorst,  
 S. T. Brown,  E. F. C. Byrd,  A. K. Chakraborty,  C.-L. Cheng,  
 Siu Hung Chien,  D. M. Chipman,  D. L. Crittenden,  H. Dachsel,  
 R. J. Doerksen,  A. D. Dutoi,  L. Fusti-Molnar,  W. A. Goddard III,  
 A. Golubeva-Zadorozhnaya,  S. R. Gwaltney,  G. Hawkins,  A. Heyden,  
 S. Hirata,  G. Kedziora,  F. J. Keil,  C. Kelley,  Jihan Kim,  R. A. King,  
 R. Z. Khaliullin,  P. P. Korambath,  W. Kurlancheek,  A. M. Lee,  M. S. Lee,  
 S. V. Levchenko,  Ching Yeh Lin,  D. Liotard,  R. C. Lochan,  I. Lotan,  
 P. E. Maslen,  N. Nair,  D. P. O'Neill,  D. Neuhauser,  E. Neuscamman,  
 C. M. Oana,  R. Olson,  B. Peters,  R. Peverati,  P. A. Pieniazek,  
 Y. M. Rhee,  J. Ritchie,  M. A. Rohrdanz,  E. Rosta,  N. J. Russ,  
 H. F. Schaefer III,  N. E. Schultz,  N. Shenvi,  A. C. Simmonett,  A. Sodt,  
 D. Stuck,  K. S. Thanthiriwatte,  V. Vanovschi,  Tao Wang,  A. Warshel,  
 C. F. Williams,  Q. Wu,  X. Xu,  W. Zhang

 Please cite Q-Chem as follows:
 Y. Shao et al., Mol. Phys. 113, 184-215 (2015)
 DOI: 10.1080/00268976.2014.952696

 Q-Chem 5.1.0 for Mac (Intel) OS X

 Parts of Q-Chem use Armadillo 8.300.2 (Tropical Shenanigans).
 http://arma.sourceforge.net/

 Q-Chem begins on Tue Sep  4 23:51:36 2018  

Host: Aeria.local
0

     Scratch files written to /Users/abel/Scratch/export/qchem93562//
Input Ideriv = 2
Curr. Ideriv = -1
Max.  Ideriv = 2

Checking the input file for inconsistencies... 	...done.

--------------------------------------------------------------
User input:
--------------------------------------------------------------
$molecule
0 1
H            .000000     .000000    2.129296
N            .000000     .000000    1.118684
C            .000000    1.124516     .333565
C            .000000   -1.124516     .333565
C            .000000     .708407    -.983807
C            .000000    -.708407    -.983807
H            .000000    2.112872     .770496
H            .000000   -2.112872     .770496
H            .000000    1.357252   -1.849085
H            .000000   -1.357252   -1.849085
$end

$rem
 jobtype sp
 exchange hf
 basis  sto-3g
 print_orbitals  true
 molden_format   true
 sym_ignore  true
 gui              2
$end
--------------------------------------------------------------
 ----------------------------------------------------------------
             Standard Nuclear Orientation (Angstroms)
    I     Atom           X                Y                Z
 ----------------------------------------------------------------
    1      H       0.0000000000     0.0000000000     2.1292960000
    2      N       0.0000000000     0.0000000000     1.1186840000
    3      C       0.0000000000     1.1245160000     0.3335650000
    4      C       0.0000000000    -1.1245160000     0.3335650000
    5      C       0.0000000000     0.7084070000    -0.9838070000
    6      C       0.0000000000    -0.7084070000    -0.9838070000
    7      H       0.0000000000     2.1128720000     0.7704960000
    8      H       0.0000000000    -2.1128720000     0.7704960000
    9      H       0.0000000000     1.3572520000    -1.8490850000
   10      H       0.0000000000    -1.3572520000    -1.8490850000
 ----------------------------------------------------------------
 Nuclear Repulsion Energy =   160.9055224922 hartrees
 There are       18 alpha and       18 beta electrons
 Requested basis set is STO-3G
 There are 15 shells and 30 basis functions

 Total QAlloc Memory Limit   2000 MB
 Mega-Array Size       188 MB
 MEM_STATIC part       192 MB

                       Distance Matrix (Angstroms)
             H (  1)   N (  2)   C (  3)   C (  4)   C (  5)   C (  6)
   N (  2)  1.010612
   C (  3)  2.118770  1.371477
   C (  4)  2.118770  1.371477  2.249032
   C (  5)  3.192687  2.218628  1.381527  2.257227
   C (  6)  3.192687  2.218628  2.257227  1.381527  1.416814
   H (  7)  2.512084  2.141369  1.080628  3.266740  2.247243  3.322227
   H (  8)  2.512084  2.141369  3.266740  1.080628  3.322227  2.247243
   H (  9)  4.203528  3.263401  2.195023  3.305016  1.081529  2.239565
   H ( 10)  4.203528  3.263401  3.305016  2.195023  2.239565  1.081529
             H (  7)   H (  8)   H (  9)
   H (  8)  4.225744
   H (  9)  2.726383  4.347869
   H ( 10)  4.347869  2.726383  2.714504

 A cutoff of  1.0D-08 yielded    115 shell pairs
 There are       490 function pairs
 Smallest overlap matrix eigenvalue = 1.80E-01

 Scale SEOQF with 1.000000e+00/1.000000e-01/1.000000e-01

 Standard Electronic Orientation quadrupole field applied
 Nucleus-field energy     =    -0.0000000013 hartrees
 Guess from superposition of atomic densities
 Warning:  Energy on first SCF cycle will be non-variational
 SAD guess density has 36.000000 electrons

 -----------------------------------------------------------------------
  General SCF calculation program by
  Eric Jon Sundstrom, Paul Horn, Yuezhi Mao, Dmitri Zuev, Alec White,
  David Stuck, Shaama M.S., Shane Yost, Joonho Lee, David Small,
  Daniel Levine, Susi Lehtola, Hugh Burton, Evgeny Epifanovsky
 -----------------------------------------------------------------------
 Hartree-Fock
 A restricted SCF calculation will be
 performed using DIIS
 SCF converges when DIIS error is below 1.0e-05
 ---------------------------------------
  Cycle       Energy         DIIS error
 ---------------------------------------
    1    -206.4700208137      2.23e-01  
    2    -206.1918120389      1.32e-02  
    3    -206.2208133101      4.91e-03  
    4    -206.2239774843      1.84e-03  
    5    -206.2245545250      1.63e-04  
    6    -206.2245627008      6.61e-05  
    7    -206.2245647881      2.37e-05  
    8    -206.2245649877      3.99e-06  Convergence criterion met
 ---------------------------------------
 SCF time:   CPU 0.92s  wall 1.00s 
 SCF   energy in the final basis set =     -206.2245649877
 Total energy in the final basis set =     -206.2245649877

 --------------------------------------------------------------

                    Orbital Energies (a.u.)
 --------------------------------------------------------------

 Alpha MOs
 -- Occupied --
-15.409 -11.038 -11.037 -10.987 -10.987  -1.225  -0.976  -0.912
 -0.733  -0.705  -0.682  -0.528  -0.522  -0.517  -0.482  -0.462
 -0.281  -0.233
 -- Virtual --
  0.322   0.409   0.564   0.643   0.683   0.693   0.717   0.779
  0.795   0.971   1.048   1.143
 --------------------------------------------------------------


                        RESTRICTED (RHF) MOLECULAR ORBITAL COEFFICIENTS
                         1         2         3         4         5         6
 eigenvalues:        -15.409   -11.038   -11.037   -10.987   -10.987    -1.225
   1  H 1   s       -0.00643  -0.00000   0.00036  -0.00013   0.00000  -0.09872
   2  N     s        0.99323   0.00000  -0.00054   0.00004  -0.00000   0.19198
   3  N     s        0.03295  -0.00000   0.00862   0.00041  -0.00000  -0.62092
   4  N     px      -0.00000  -0.00000  -0.00000   0.00000   0.00000   0.00000
   5  N     py      -0.00000   0.00454   0.00000   0.00000   0.00018   0.00000
   6  N     pz      -0.00109   0.00000  -0.00289   0.00013  -0.00000   0.06454
   7  C 1   s        0.00048  -0.70157  -0.70172  -0.00183  -0.00361   0.09603
   8  C 1   s       -0.00611  -0.02516  -0.02481  -0.00526  -0.00551  -0.21622
   9  C 1   px      -0.00000  -0.00000   0.00000  -0.00000   0.00000  -0.00000
  10  C 1   py       0.00392   0.00169   0.00100   0.00113   0.00081   0.08655
  11  C 1   pz      -0.00268   0.00037   0.00019   0.00311   0.00317  -0.02588
  12  C 2   s        0.00048   0.70157  -0.70172  -0.00183   0.00361   0.09603
  13  C 2   s       -0.00611   0.02516  -0.02481  -0.00526   0.00551  -0.21622
  14  C 2   px       0.00000   0.00000  -0.00000  -0.00000  -0.00000  -0.00000
  15  C 2   py      -0.00392   0.00169  -0.00100  -0.00113   0.00081  -0.08655
  16  C 2   pz      -0.00268  -0.00037   0.00019   0.00311  -0.00317  -0.02588
  17  C 3   s        0.00000  -0.00404  -0.00242   0.70184   0.70125   0.04997
  18  C 3   s        0.00040   0.00497   0.00483   0.02096   0.03076  -0.11253
  19  C 3   px       0.00000   0.00000  -0.00000   0.00000   0.00000   0.00000
  20  C 3   py      -0.00004   0.00105   0.00089   0.00254  -0.00383   0.01724
  21  C 3   pz       0.00026   0.00279   0.00314   0.00145   0.00138  -0.04500
  22  C 4   s        0.00000   0.00404  -0.00242   0.70184  -0.70125   0.04997
  23  C 4   s        0.00040  -0.00497   0.00483   0.02096  -0.03076  -0.11253
  24  C 4   px      -0.00000   0.00000   0.00000   0.00000  -0.00000  -0.00000
  25  C 4   py       0.00004   0.00105  -0.00089  -0.00254  -0.00383  -0.01724
  26  C 4   pz       0.00026  -0.00279   0.00314   0.00145  -0.00138  -0.04500
  27  H 2   s        0.00024   0.00457   0.00476   0.00002   0.00018  -0.03327
  28  H 3   s        0.00024  -0.00457   0.00476   0.00002  -0.00018  -0.03327
  29  H 4   s       -0.00004  -0.00014   0.00004  -0.00462  -0.00476  -0.01417
  30  H 5   s       -0.00004   0.00014   0.00004  -0.00462   0.00476  -0.01417
                         7         8         9        10        11        12
 eigenvalues:         -0.976    -0.912    -0.733    -0.705    -0.682    -0.528
   1  H 1   s       -0.15247  -0.00000   0.30973  -0.00000   0.11864   0.30231
   2  N     s        0.10663   0.00000  -0.04083   0.00000   0.03535   0.03462
   3  N     s       -0.38643  -0.00000   0.16068  -0.00000  -0.13877  -0.15852
   4  N     px       0.00000   0.00000  -0.00000   0.00000   0.00000  -0.00000
   5  N     py      -0.00000   0.25876   0.00000   0.32536  -0.00000   0.00000
   6  N     pz      -0.12774  -0.00000   0.39376  -0.00000   0.24222   0.39032
   7  C 1   s       -0.04239  -0.15370   0.08456  -0.03524  -0.06856  -0.00647
   8  C 1   s        0.11204   0.43010  -0.25397   0.10841   0.22667   0.01210
   9  C 1   px      -0.00000  -0.00000  -0.00000   0.00000   0.00000  -0.00000
  10  C 1   py      -0.00070  -0.01058   0.00833  -0.00432   0.29059   0.04215
  11  C 1   pz      -0.14038  -0.01485  -0.00747   0.25299   0.03473  -0.23032
  12  C 2   s       -0.04239   0.15370   0.08456   0.03524  -0.06856  -0.00647
  13  C 2   s        0.11204  -0.43010  -0.25397  -0.10841   0.22667   0.01210
  14  C 2   px      -0.00000  -0.00000  -0.00000  -0.00000  -0.00000  -0.00000
  15  C 2   py       0.00070  -0.01058  -0.00833  -0.00432  -0.29059  -0.04215
  16  C 2   pz      -0.14038   0.01485  -0.00747  -0.25299   0.03473  -0.23032
  17  C 3   s       -0.14671  -0.07921  -0.07856   0.11190  -0.00043  -0.01430
  18  C 3   s        0.38322   0.21700   0.24225  -0.33393   0.01400   0.03807
  19  C 3   px       0.00000   0.00000  -0.00000   0.00000   0.00000   0.00000
  20  C 3   py      -0.07193   0.08130  -0.07583  -0.14906   0.15299  -0.11773
  21  C 3   pz       0.04284   0.08215  -0.17761   0.03069  -0.03750   0.32194
  22  C 4   s       -0.14671   0.07921  -0.07856  -0.11190  -0.00043  -0.01430
  23  C 4   s        0.38322  -0.21700   0.24225   0.33393   0.01400   0.03807
  24  C 4   px       0.00000   0.00000   0.00000  -0.00000  -0.00000  -0.00000
  25  C 4   py       0.07193   0.08130   0.07583  -0.14906  -0.15299   0.11773
  26  C 4   pz       0.04284  -0.08215  -0.17761  -0.03069  -0.03750   0.32194
  27  H 2   s        0.01549   0.13609  -0.10423   0.10443   0.28499  -0.02793
  28  H 3   s        0.01549  -0.13609  -0.10423  -0.10443   0.28499  -0.02793
  29  H 4   s        0.08838   0.06332   0.15352  -0.21256   0.07983  -0.26163
  30  H 5   s        0.08838  -0.06332   0.15352   0.21256   0.07983  -0.26163
                        13        14        15        16        17        18
 eigenvalues:         -0.522    -0.517    -0.482    -0.462    -0.281    -0.233
   1  H 1   s       -0.00000  -0.00000   0.00000   0.07223   0.00000  -0.00000
   2  N     s       -0.00000  -0.00000   0.00000  -0.01499  -0.00000  -0.00000
   3  N     s        0.00000   0.00000  -0.00000   0.06921   0.00000   0.00000
   4  N     px       0.00000  -0.62496   0.00000   0.00000   0.60272   0.00000
   5  N     py       0.44454   0.00000  -0.19329  -0.00000  -0.00000  -0.00000
   6  N     pz      -0.00000  -0.00000   0.00000   0.03345  -0.00000  -0.00000
   7  C 1   s        0.00286   0.00000  -0.04304  -0.00605  -0.00000   0.00000
   8  C 1   s       -0.00908  -0.00000   0.14754   0.01969  -0.00000  -0.00000
   9  C 1   px       0.00000  -0.33822   0.00000   0.00000  -0.06875   0.58460
  10  C 1   py      -0.39206  -0.00000  -0.06521  -0.11120  -0.00000   0.00000
  11  C 1   pz       0.00815   0.00000  -0.30181  -0.24465  -0.00000   0.00000
  12  C 2   s       -0.00286  -0.00000   0.04304  -0.00605   0.00000  -0.00000
  13  C 2   s        0.00908   0.00000  -0.14754   0.01969   0.00000   0.00000
  14  C 2   px       0.00000  -0.33822  -0.00000  -0.00000  -0.06875  -0.58460
  15  C 2   py      -0.39206  -0.00000  -0.06521   0.11120   0.00000   0.00000
  16  C 2   pz      -0.00815   0.00000   0.30181  -0.24465   0.00000   0.00000
  17  C 3   s       -0.02898  -0.00000   0.00508   0.01399  -0.00000   0.00000
  18  C 3   s        0.09404   0.00000  -0.02425  -0.05476   0.00000   0.00000
  19  C 3   px       0.00000  -0.22171   0.00000   0.00000  -0.52215   0.34870
  20  C 3   py       0.00690   0.00000  -0.05419   0.46686   0.00000  -0.00000
  21  C 3   pz       0.01936  -0.00000   0.36681   0.09266   0.00000  -0.00000
  22  C 4   s        0.02898   0.00000  -0.00508   0.01399   0.00000   0.00000
  23  C 4   s       -0.09404  -0.00000   0.02425  -0.05476  -0.00000  -0.00000
  24  C 4   px       0.00000  -0.22171   0.00000  -0.00000  -0.52215  -0.34870
  25  C 4   py       0.00690  -0.00000  -0.05419  -0.46686  -0.00000   0.00000
  26  C 4   pz      -0.01936  -0.00000  -0.36681   0.09266  -0.00000  -0.00000
  27  H 2   s       -0.34245  -0.00000  -0.08129  -0.20231   0.00000   0.00000
  28  H 3   s        0.34245   0.00000   0.08129  -0.20231  -0.00000   0.00000
  29  H 4   s        0.04114   0.00000  -0.32933   0.17232  -0.00000   0.00000
  30  H 5   s       -0.04114   0.00000   0.32933   0.17232   0.00000   0.00000
                        19        20        21        22        23
 eigenvalues:          0.322     0.409     0.564     0.643     0.683
   1  H 1   s       -0.00000   0.00000  -0.94430   0.28193  -0.00000
   2  N     s       -0.00000   0.00000  -0.14015   0.12518  -0.00000
   3  N     s        0.00000  -0.00000   0.95614  -0.83228   0.00000
   4  N     px       0.56655   0.00000  -0.00000   0.00000  -0.00000
   5  N     py       0.00000   0.00000  -0.00000   0.00000  -0.43759
   6  N     pz      -0.00000  -0.00000   0.40771   0.13986  -0.00000
   7  C 1   s        0.00000   0.00000   0.00132  -0.14644   0.03006
   8  C 1   s       -0.00000  -0.00000   0.03043   0.89628  -0.21418
   9  C 1   px      -0.65336  -0.44918  -0.00000   0.00000  -0.00000
  10  C 1   py       0.00000   0.00000   0.36826   0.07940  -0.64473
  11  C 1   pz       0.00000   0.00000  -0.09056   0.35631   0.08155
  12  C 2   s       -0.00000  -0.00000   0.00132  -0.14644  -0.03006
  13  C 2   s        0.00000   0.00000   0.03043   0.89628   0.21418
  14  C 2   px      -0.65336   0.44918   0.00000   0.00000   0.00000
  15  C 2   py       0.00000   0.00000  -0.36826  -0.07940  -0.64473
  16  C 2   pz       0.00000   0.00000  -0.09056   0.35631  -0.08155
  17  C 3   s       -0.00000   0.00000  -0.04655   0.00553  -0.08192
  18  C 3   s        0.00000  -0.00000   0.28817  -0.01006   0.49156
  19  C 3   px       0.34056   0.73321   0.00000  -0.00000   0.00000
  20  C 3   py      -0.00000   0.00000   0.11840   0.01123  -0.46258
  21  C 3   pz      -0.00000   0.00000  -0.17169  -0.18868   0.02265
  22  C 4   s        0.00000  -0.00000  -0.04655   0.00553   0.08192
  23  C 4   s       -0.00000   0.00000   0.28817  -0.01006  -0.49156
  24  C 4   px       0.34056  -0.73321  -0.00000   0.00000  -0.00000
  25  C 4   py      -0.00000   0.00000  -0.11840  -0.01123  -0.46258
  26  C 4   pz       0.00000   0.00000  -0.17169  -0.18868  -0.02265
  27  H 2   s       -0.00000  -0.00000  -0.29124  -0.72243   0.63265
  28  H 3   s       -0.00000   0.00000  -0.29124  -0.72243  -0.63265
  29  H 4   s       -0.00000   0.00000  -0.41132  -0.13419   0.02160
  30  H 5   s        0.00000   0.00000  -0.41132  -0.13419  -0.02160


======= MOLECULAR ORBITALS IN MOLDEN FORMAT =======
[Molden Format]
[Atoms] (Angs)
  H      1    1      0.00000000      0.00000000      2.12929600
  N      2    7      0.00000000      0.00000000      1.11868400
  C      3    6      0.00000000      1.12451600      0.33356500
  C      4    6      0.00000000     -1.12451600      0.33356500
  C      5    6      0.00000000      0.70840700     -0.98380700
  C      6    6      0.00000000     -0.70840700     -0.98380700
  H      7    1      0.00000000      2.11287200      0.77049600
  H      8    1      0.00000000     -2.11287200      0.77049600
  H      9    1      0.00000000      1.35725200     -1.84908500
  H     10    1      0.00000000     -1.35725200     -1.84908500
[GTO]
1    0
S    3    1.000000
   3.42525091E+00    1.54328970E-01 
   6.23913730E-01    5.35328140E-01 
   1.68855400E-01    4.44634540E-01 

2    0
S    3    1.000000
   9.91061690E+01    1.54328970E-01 
   1.80523120E+01    5.35328140E-01 
   4.88566020E+00    4.44634540E-01 
SP   3    1.000000
   3.78045590E+00   -9.99672300E-02   1.55916270E-01 
   8.78496600E-01    3.99512830E-01   6.07683720E-01 
   2.85714400E-01    7.00115470E-01   3.91957390E-01 

3    0
S    3    1.000000
   7.16168370E+01    1.54328970E-01 
   1.30450960E+01    5.35328140E-01 
   3.53051220E+00    4.44634540E-01 
SP   3    1.000000
   2.94124940E+00   -9.99672300E-02   1.55916270E-01 
   6.83483100E-01    3.99512830E-01   6.07683720E-01 
   2.22289900E-01    7.00115470E-01   3.91957390E-01 

4    0
S    3    1.000000
   7.16168370E+01    1.54328970E-01 
   1.30450960E+01    5.35328140E-01 
   3.53051220E+00    4.44634540E-01 
SP   3    1.000000
   2.94124940E+00   -9.99672300E-02   1.55916270E-01 
   6.83483100E-01    3.99512830E-01   6.07683720E-01 
   2.22289900E-01    7.00115470E-01   3.91957390E-01 

5    0
S    3    1.000000
   7.16168370E+01    1.54328970E-01 
   1.30450960E+01    5.35328140E-01 
   3.53051220E+00    4.44634540E-01 
SP   3    1.000000
   2.94124940E+00   -9.99672300E-02   1.55916270E-01 
   6.83483100E-01    3.99512830E-01   6.07683720E-01 
   2.22289900E-01    7.00115470E-01   3.91957390E-01 

6    0
S    3    1.000000
   7.16168370E+01    1.54328970E-01 
   1.30450960E+01    5.35328140E-01 
   3.53051220E+00    4.44634540E-01 
SP   3    1.000000
   2.94124940E+00   -9.99672300E-02   1.55916270E-01 
   6.83483100E-01    3.99512830E-01   6.07683720E-01 
   2.22289900E-01    7.00115470E-01   3.91957390E-01 

7    0
S    3    1.000000
   3.42525091E+00    1.54328970E-01 
   6.23913730E-01    5.35328140E-01 
   1.68855400E-01    4.44634540E-01 

8    0
S    3    1.000000
   3.42525091E+00    1.54328970E-01 
   6.23913730E-01    5.35328140E-01 
   1.68855400E-01    4.44634540E-01 

9    0
S    3    1.000000
   3.42525091E+00    1.54328970E-01 
   6.23913730E-01    5.35328140E-01 
   1.68855400E-01    4.44634540E-01 

10    0
S    3    1.000000
   3.42525091E+00    1.54328970E-01 
   6.23913730E-01    5.35328140E-01 
   1.68855400E-01    4.44634540E-01 

[MO]
Sym=X
Ene= -15.409499
Spin=Alpha
Occup=1
     1   -6.433029235261e-03
     2    9.932340787924e-01
     3    3.294722733144e-02
     4   -2.013292900410e-16
     5   -1.577297804542e-16
     6   -1.087271693456e-03
     7    4.825211061760e-04
     8   -6.114530364285e-03
     9   -8.238449251717e-17
    10    3.924130805495e-03
    11   -2.680629782193e-03
    12    4.825211061765e-04
    13   -6.114530364287e-03
    14    2.933237627079e-16
    15   -3.924130805495e-03
    16   -2.680629782192e-03
    17    3.787110483091e-06
    18    4.030332242042e-04
    19    6.900042088457e-17
    20   -4.479503579229e-05
    21    2.629139160633e-04
    22    3.787110486080e-06
    23    4.030332242058e-04
    24   -1.514586781596e-16
    25    4.479503579336e-05
    26    2.629139160635e-04
    27    2.417211382337e-04
    28    2.417211382336e-04
    29   -4.124713466095e-05
    30   -4.124713466155e-05
Sym=X
Ene= -11.037660
Spin=Alpha
Occup=1
     1   -2.536522313460e-14
     2    3.618750676352e-14
     3   -5.790591463998e-13
     4   -1.336543756101e-16
     5    4.537140147756e-03
     6    1.945078916557e-13
     7   -7.015716399821e-01
     8   -2.515774028048e-02
     9   -1.005471835479e-16
    10    1.690516104911e-03
    11    3.671226444110e-04
    12    7.015716400765e-01
    13    2.515774028382e-02
    14    2.228034473114e-17
    15    1.690516105044e-03
    16   -3.671226444353e-04
    17   -4.037206872704e-03
    18    4.966516466117e-03
    19    1.807087986217e-16
    20    1.046326913499e-03
    21    2.787743850877e-03
    22    4.037206873273e-03
    23   -4.966516466758e-03
    24    3.122558078828e-16
    25    1.046326913617e-03
    26   -2.787743851298e-03
    27    4.565239109173e-03
    28   -4.565239109814e-03
    29   -1.427181808007e-04
    30    1.427181807935e-04
Sym=X
Ene= -11.037443
Spin=Alpha
Occup=1
     1    3.628508966629e-04
     2   -5.383877545520e-04
     3    8.615330619017e-03
     4   -2.769898423285e-16
     5    3.051774212547e-13
     6   -2.893230684359e-03
     7   -7.017216580776e-01
     8   -2.480926492614e-02
     9    6.691175883581e-17
    10    9.956365420612e-04
    11    1.914398431049e-04
    12   -7.017216579831e-01
    13   -2.480926492276e-02
    14   -1.194271801037e-17
    15   -9.956365418331e-04
    16    1.914398430557e-04
    17   -2.423800627398e-03
    18    4.828343448749e-03
    19   -5.354373329295e-16
    20    8.875077045238e-04
    21    3.136092807168e-03
    22   -2.423800626643e-03
    23    4.828343448089e-03
    24    2.548852629804e-16
    25   -8.875077043825e-04
    26    3.136092806794e-03
    27    4.760326618611e-03
    28    4.760326617998e-03
    29    4.019019061731e-05
    30    4.019019063503e-05
Sym=X
Ene= -10.986696
Spin=Alpha
Occup=1
     1   -1.285874631069e-04
     2    4.134831775300e-05
     3    4.082150379161e-04
     4    2.115040442505e-16
     5    1.164368415342e-14
     6    1.295341500070e-04
     7   -1.831398413613e-03
     8   -5.264048654763e-03
     9   -2.038706768139e-17
    10    1.127350920346e-03
    11    3.114894227422e-03
    12   -1.831398413376e-03
    13   -5.264048654040e-03
    14   -1.604982328441e-16
    15   -1.127350920239e-03
    16    3.114894227001e-03
    17    7.018367465558e-01
    18    2.096021950450e-02
    19    2.547924934881e-16
    20    2.539389183694e-03
    21    1.452043487036e-03
    22    7.018367464627e-01
    23    2.096021950042e-02
    24    2.962262975544e-17
    25   -2.539389184202e-03
    26    1.452043486855e-03
    27    2.057467935195e-05
    28    2.057467932944e-05
    29   -4.621770905565e-03
    30   -4.621770904932e-03
Sym=X
Ene= -10.986536
Spin=Alpha
Occup=1
     1    8.143324654178e-15
     2   -1.235823294987e-15
     3   -2.582597530014e-14
     4    1.199157795718e-16
     5    1.831906539145e-04
     6   -9.136690845758e-15
     7   -3.613802465911e-03
     8   -5.511509891552e-03
     9    1.205082584267e-16
    10    8.149336465744e-04
    11    3.172379660817e-03
    12    3.613802465943e-03
    13    5.511509892243e-03
    14   -1.887585699065e-16
    15    8.149336467239e-04
    16   -3.172379661229e-03
    17    7.012475400990e-01
    18    3.075937374117e-02
    19    1.699168756840e-16
    20   -3.830234526784e-03
    21    1.375926422845e-03
    22   -7.012475401922e-01
    23   -3.075937374395e-02
    24   -3.837796535506e-17
    25   -3.830234526448e-03
    26   -1.375926423037e-03
    27    1.845482904510e-04
    28   -1.845482904527e-04
    29   -4.763556631425e-03
    30    4.763556632037e-03
Sym=X
Ene= -1.225058
Spin=Alpha
Occup=1
     1   -9.872270828079e-02
     2    1.919805705669e-01
     3   -6.209198450143e-01
     4    7.278682109727e-16
     5    1.074054407817e-15
     6    6.453537007723e-02
     7    9.603053369219e-02
     8   -2.162185833399e-01
     9   -9.161004021073e-18
    10    8.655040062946e-02
    11   -2.587991102264e-02
    12    9.603053369219e-02
    13   -2.162185833399e-01
    14   -7.019029066229e-16
    15   -8.655040062946e-02
    16   -2.587991102264e-02
    17    4.996753507271e-02
    18   -1.125309318186e-01
    19    1.189917331828e-16
    20    1.723835884943e-02
    21   -4.500050919663e-02
    22    4.996753507271e-02
    23   -1.125309318186e-01
    24   -3.640816656942e-16
    25   -1.723835884943e-02
    26   -4.500050919663e-02
    27   -3.326796810744e-02
    28   -3.326796810744e-02
    29   -1.416596960246e-02
    30   -1.416596960245e-02
Sym=X
Ene= -0.975717
Spin=Alpha
Occup=1
     1   -1.524749756499e-01
     2    1.066250494666e-01
     3   -3.864269446108e-01
     4    1.916507769250e-15
     5   -5.068322483457e-15
     6   -1.277408581967e-01
     7   -4.238860319703e-02
     8    1.120374519889e-01
     9   -5.948216727497e-16
    10   -6.966220926050e-04
    11   -1.403798677649e-01
    12   -4.238860319704e-02
    13    1.120374519889e-01
    14   -3.472371827064e-15
    15    6.966220926039e-04
    16   -1.403798677649e-01
    17   -1.467061540988e-01
    18    3.832185968962e-01
    19    2.193186842194e-15
    20   -7.192531959907e-02
    21    4.284103597428e-02
    22   -1.467061540988e-01
    23    3.832185968962e-01
    24    8.426066683733e-17
    25    7.192531959906e-02
    26    4.284103597429e-02
    27    1.549302402365e-02
    28    1.549302402366e-02
    29    8.837832978006e-02
    30    8.837832978007e-02
Sym=X
Ene= -0.912007
Spin=Alpha
Occup=1
     1   -5.274149838569e-15
     2    2.851353450599e-15
     3   -1.013008782385e-14
     4    3.592326592623e-15
     5    2.587575677563e-01
     6   -7.117207938240e-15
     7   -1.537015346162e-01
     8    4.300989660817e-01
     9   -1.257362385226e-15
    10   -1.057681646237e-02
    11   -1.484672536189e-02
    12    1.537015346162e-01
    13   -4.300989660817e-01
    14   -8.307111867190e-15
    15   -1.057681646236e-02
    16    1.484672536188e-02
    17   -7.921431933284e-02
    18    2.169970135794e-01
    19    5.202330897492e-15
    20    8.129689615712e-02
    21    8.214575038126e-02
    22    7.921431933283e-02
    23   -2.169970135794e-01
    24    4.633052145193e-16
    25    8.129689615713e-02
    26   -8.214575038125e-02
    27    1.360880250796e-01
    28   -1.360880250796e-01
    29    6.332462157950e-02
    30   -6.332462157949e-02
Sym=X
Ene= -0.733165
Spin=Alpha
Occup=1
     1    3.097305352485e-01
     2   -4.083119762154e-02
     3    1.606802632559e-01
     4   -2.695412416409e-15
     5    2.103540350811e-14
     6    3.937619433404e-01
     7    8.456314398272e-02
     8   -2.539694928963e-01
     9   -1.434116525606e-15
    10    8.325855293070e-03
    11   -7.467101038189e-03
    12    8.456314398273e-02
    13   -2.539694928963e-01
    14   -9.364583817034e-16
    15   -8.325855293069e-03
    16   -7.467101038223e-03
    17   -7.855542163894e-02
    18    2.422532882007e-01
    19   -1.147650204520e-15
    20   -7.582503875517e-02
    21   -1.776117782262e-01
    22   -7.855542163896e-02
    23    2.422532882008e-01
    24    3.170034229976e-16
    25    7.582503875515e-02
    26   -1.776117782262e-01
    27   -1.042320343498e-01
    28   -1.042320343498e-01
    29    1.535198088159e-01
    30    1.535198088159e-01
Sym=X
Ene= -0.704663
Spin=Alpha
Occup=1
     1   -1.615586412885e-14
     2    2.891875502508e-15
     3   -1.110645804689e-14
     4    4.386217208267e-15
     5    3.253595415970e-01
     6   -1.845874258949e-14
     7   -3.523572906078e-02
     8    1.084122051677e-01
     9    1.450548246251e-15
    10   -4.324075317161e-03
    11    2.529868609210e-01
    12    3.523572906076e-02
    13   -1.084122051677e-01
    14   -4.390717026508e-15
    15   -4.324075317183e-03
    16   -2.529868609210e-01
    17    1.119001686076e-01
    18   -3.339308968796e-01
    19    2.539249466504e-15
    20   -1.490634860046e-01
    21    3.069188848923e-02
    22   -1.119001686076e-01
    23    3.339308968795e-01
    24   -7.046548603648e-16
    25   -1.490634860046e-01
    26   -3.069188848921e-02
    27    1.044270128330e-01
    28   -1.044270128330e-01
    29   -2.125614855627e-01
    30    2.125614855627e-01
Sym=X
Ene= -0.681609
Spin=Alpha
Occup=1
     1    1.186370654888e-01
     2    3.534925321634e-02
     3   -1.387729902115e-01
     4    2.367081771873e-15
     5   -7.620605856997e-15
     6    2.422177978177e-01
     7   -6.856347620137e-02
     8    2.266725513695e-01
     9    5.383868059763e-16
    10    2.905925394917e-01
    11    3.472671890389e-02
    12   -6.856347620137e-02
    13    2.266725513695e-01
    14   -1.869515313764e-15
    15   -2.905925394917e-01
    16    3.472671890391e-02
    17   -4.335718398154e-04
    18    1.400316714281e-02
    19    1.126746095166e-15
    20    1.529892391578e-01
    21   -3.750425980440e-02
    22   -4.335718398054e-04
    23    1.400316714278e-02
    24   -1.021489430946e-15
    25   -1.529892391578e-01
    26   -3.750425980440e-02
    27    2.849902868226e-01
    28    2.849902868226e-01
    29    7.983453970887e-02
    30    7.983453970885e-02
Sym=X
Ene= -0.527823
Spin=Alpha
Occup=1
     1    3.023054189142e-01
     2    3.462376850883e-02
     3   -1.585231453380e-01
     4   -4.081344890247e-15
     5    7.114261826931e-14
     6    3.903194206445e-01
     7   -6.471545353016e-03
     8    1.209982580413e-02
     9   -3.760854854604e-15
    10    4.214641276960e-02
    11   -2.303194662906e-01
    12   -6.471545353022e-03
    13    1.209982580415e-02
    14   -1.674659676712e-14
    15   -4.214641276970e-02
    16   -2.303194662906e-01
    17   -1.430103851418e-02
    18    3.806886407075e-02
    19    3.833148681179e-15
    20   -1.177255848624e-01
    21    3.219366882247e-01
    22   -1.430103851417e-02
    23    3.806886407072e-02
    24   -5.431524523101e-15
    25    1.177255848624e-01
    26    3.219366882247e-01
    27   -2.793185142182e-02
    28   -2.793185142174e-02
    29   -2.616321585725e-01
    30   -2.616321585725e-01
Sym=X
Ene= -0.521670
Spin=Alpha
Occup=1
     1   -3.989911485365e-14
     2   -4.980506637765e-15
     3    2.247368962393e-14
     4    6.824377044441e-14
     5    4.445407504794e-01
     6   -5.294331801709e-14
     7    2.855511405589e-03
     8   -9.079704374367e-03
     9    3.508136255049e-14
    10   -3.920622665381e-01
    11    8.150550832175e-03
    12   -2.855511405587e-03
    13    9.079704374362e-03
    14    3.420495390312e-14
    15   -3.920622665381e-01
    16   -8.150550832111e-03
    17   -2.897898478115e-02
    18    9.404267320313e-02
    19    2.347804853745e-14
    20    6.902976577504e-03
    21    1.936140321530e-02
    22    2.897898478116e-02
    23   -9.404267320314e-02
    24    2.276982394133e-14
    25    6.902976577482e-03
    26   -1.936140321539e-02
    27   -3.424513033400e-01
    28    3.424513033400e-01
    29    4.114096171913e-02
    30   -4.114096171906e-02
Sym=X
Ene= -0.517237
Spin=Alpha
Occup=1
     1   -5.785356878316e-15
     2   -6.032184060888e-16
     3    3.178175160783e-15
     4   -6.249610700832e-01
     5    4.663357756820e-14
     6   -6.901458387053e-15
     7    1.329606930317e-16
     8   -5.643727435471e-16
     9   -3.382217584229e-01
    10   -4.179152481781e-14
    11    4.366329503588e-15
    12   -1.864705558417e-16
    13    7.484325989823e-17
    14   -3.382217584229e-01
    15   -4.149935995484e-14
    16    2.454582860495e-15
    17   -2.418282592366e-15
    18    8.329864312185e-15
    19   -2.217146062033e-01
    20    1.308423000476e-15
    21   -1.161576781225e-15
    22    3.276185931105e-15
    23   -1.066750174164e-14
    24   -2.217146062033e-01
    25   -1.929794128292e-15
    26   -7.090225905031e-15
    27   -3.473491474321e-14
    28    3.783935353822e-14
    29    7.008854320989e-15
    30    1.674962782566e-16
Sym=X
Ene= -0.481575
Spin=Alpha
Occup=1
     1    1.545814951848e-14
     2    2.634081939081e-15
     3   -1.310171030995e-14
     4    1.421976931729e-15
     5   -1.932945428051e-01
     6    1.996422068127e-14
     7   -4.303794363725e-02
     8    1.475424557577e-01
     9    5.622061790420e-16
    10   -6.521208348560e-02
    11   -3.018126071724e-01
    12    4.303794363725e-02
    13   -1.475424557577e-01
    14   -7.450545038395e-16
    15   -6.521208348561e-02
    16    3.018126071724e-01
    17    5.081223447302e-03
    18   -2.425170707006e-02
    19    2.911336774068e-15
    20   -5.418737482361e-02
    21    3.668089512317e-01
    22   -5.081223447306e-03
    23    2.425170707007e-02
    24    4.580843039491e-16
    25   -5.418737482357e-02
    26   -3.668089512317e-01
    27   -8.128583454646e-02
    28    8.128583454647e-02
    29   -3.293263620651e-01
    30    3.293263620651e-01
Sym=X
Ene= -0.461830
Spin=Alpha
Occup=1
     1    7.222864781188e-02
     2   -1.499022923230e-02
     3    6.921330747427e-02
     4    2.020703506301e-15
     5   -2.606878511597e-15
     6    3.345204155480e-02
     7   -6.050916337646e-03
     8    1.969308517169e-02
     9    1.154538367928e-15
    10   -1.111951012963e-01
    11   -2.446503181103e-01
    12   -6.050916337643e-03
    13    1.969308517169e-02
    14   -9.564277350796e-15
    15    1.111951012963e-01
    16   -2.446503181103e-01
    17    1.398558863506e-02
    18   -5.475613492980e-02
    19    6.834644556773e-15
    20    4.668598460946e-01
    21    9.266085640940e-02
    22    1.398558863506e-02
    23   -5.475613492980e-02
    24   -5.885113227664e-16
    25   -4.668598460946e-01
    26    9.266085640937e-02
    27   -2.023064465045e-01
    28   -2.023064465045e-01
    29    1.723242267392e-01
    30    1.723242267392e-01
Sym=X
Ene= -0.280696
Spin=Alpha
Occup=1
     1    2.421516603609e-16
     2   -1.319416674965e-16
     3    4.233435366507e-16
     4    6.027243713486e-01
     5   -6.064460046799e-16
     6   -2.512554625558e-16
     7   -1.101112431763e-16
     8   -6.358617251639e-17
     9   -6.875141089816e-02
    10   -2.630901796139e-16
    11   -2.045884533496e-15
    12    1.079000287643e-16
    13    2.354392622121e-16
    14   -6.875141089815e-02
    15    1.306639031371e-15
    16    3.830570626350e-16
    17   -2.018641129551e-16
    18    5.290434614721e-16
    19   -5.221544758248e-01
    20    8.794333212664e-16
    21    5.630577171010e-17
    22    1.384862782459e-16
    23   -6.333009426573e-16
    24   -5.221544758248e-01
    25   -7.851521553191e-16
    26   -4.859736367087e-16
    27    1.409603006303e-16
    28   -1.588351786909e-15
    29   -4.010682232188e-16
    30    7.729710962091e-16
Sym=X
Ene= -0.232791
Spin=Alpha
Occup=1
     1   -2.844376123134e-15
     2   -5.385083131737e-16
     3    1.838944845505e-15
     4    4.331966915674e-15
     5   -2.283052652406e-15
     6   -5.399769281967e-15
     7    1.624051788503e-15
     8   -4.396632196231e-15
     9    5.845994062648e-01
    10    1.325690814978e-15
    11    4.472916316747e-15
    12   -9.391517272300e-16
    13    2.822256081442e-15
    14   -5.845994062648e-01
    15    7.274743406767e-16
    16    6.960276444092e-15
    17    1.920917658006e-16
    18    3.536572857743e-16
    19    3.486994531226e-01
    20   -3.386934608758e-15
    21   -6.353357122291e-15
    22    3.370984106777e-16
    23   -8.602439732643e-16
    24   -3.486994531226e-01
    25    2.572421151741e-15
    26   -2.675582382502e-15
    27    1.779720495374e-16
    28    2.017063406187e-15
    29    1.061729591841e-15
    30    5.915412203858e-17
Sym=X
Ene= 0.322429
Spin=Alpha
Occup=0
     1   -1.245726004238e-15
     2   -4.640609733485e-16
     3    1.652008114556e-15
     4    5.665454509440e-01
     5    3.743864660897e-16
     6   -5.065239319298e-15
     7    1.831365213590e-15
     8   -4.821420533539e-15
     9   -6.533617026222e-01
    10    4.594037280281e-15
    11    2.117078937237e-15
    12   -1.267810610378e-15
    13    4.219895185433e-15
    14   -6.533617026223e-01
    15    1.147601410744e-15
    16    8.061044887351e-15
    17   -2.990623954926e-17
    18    3.169900915410e-15
    19    3.405628709748e-01
    20   -5.358333371668e-15
    21   -6.302782001121e-15
    22    4.755571117213e-16
    23   -2.122459997789e-15
    24    3.405628709748e-01
    25   -3.247344162325e-15
    26    7.813853027050e-16
    27   -1.261586443507e-15
    28   -3.372202901898e-16
    29   -1.807935028362e-15
    30    5.587082962102e-17
Sym=X
Ene= 0.408590
Spin=Alpha
Occup=0
     1    9.570446172885e-16
     2    2.436679674972e-16
     3   -1.559403478672e-15
     4    2.106971562002e-15
     5    8.946380848764e-16
     6   -5.370515724292e-16
     7    2.788105354208e-16
     8   -1.267880393109e-15
     9   -4.491802823313e-01
    10    2.960182696763e-16
    11    1.651286225613e-15
    12   -6.523978789479e-17
    13    4.820708190751e-16
    14    4.491802823313e-01
    15    9.634576972398e-16
    16    9.637168507333e-16
    17    1.526056109738e-16
    18   -7.624389268994e-16
    19    7.332059897309e-01
    20    5.027764259298e-16
    21    9.805321268284e-16
    22   -1.336044040476e-16
    23    7.401943801403e-16
    24   -7.332059897309e-01
    25    1.285803482274e-15
    26    3.568934531938e-17
    27   -2.103391237910e-16
    28    2.653544864895e-16
    29    1.424056347570e-15
    30    4.763035018136e-16
Sym=X
Ene= 0.564072
Spin=Alpha
Occup=0
     1   -9.443013517713e-01
     2   -1.401476812945e-01
     3    9.561354653354e-01
     4   -2.636279453321e-16
     5   -5.772064529524e-16
     6    4.077093489254e-01
     7    1.318874715754e-03
     8    3.042780965376e-02
     9   -3.888062839498e-17
    10    3.682604145797e-01
    11   -9.055901784214e-02
    12    1.318874715756e-03
    13    3.042780965375e-02
    14    8.839161518025e-16
    15   -3.682604145797e-01
    16   -9.055901784213e-02
    17   -4.655105961727e-02
    18    2.881658571539e-01
    19    8.754544413083e-16
    20    1.184030328484e-01
    21   -1.716918123891e-01
    22   -4.655105961728e-02
    23    2.881658571540e-01
    24   -9.383677700026e-16
    25   -1.184030328484e-01
    26   -1.716918123891e-01
    27   -2.912417211531e-01
    28   -2.912417211530e-01
    29   -4.113154195925e-01
    30   -4.113154195926e-01
Sym=X
Ene= 0.643272
Spin=Alpha
Occup=0
     1    2.819339335989e-01
     2    1.251834682238e-01
     3   -8.322818026140e-01
     4    4.116692937450e-16
     5    2.506233418847e-14
     6    1.398642963902e-01
     7   -1.464373202629e-01
     8    8.962799706395e-01
     9    8.082653994311e-16
    10    7.940120786758e-02
    11    3.563069223410e-01
    12   -1.464373202629e-01
    13    8.962799706396e-01
    14    1.327031431553e-16
    15   -7.940120786764e-02
    16    3.563069223410e-01
    17    5.528843584376e-03
    18   -1.005748762416e-02
    19   -1.186340231880e-15
    20    1.123493639161e-02
    21   -1.886759093395e-01
    22    5.528843584390e-03
    23   -1.005748762425e-02
    24    1.756541880926e-16
    25   -1.123493639162e-02
    26   -1.886759093395e-01
    27   -7.224325614087e-01
    28   -7.224325614089e-01
    29   -1.341854790764e-01
    30   -1.341854790764e-01
Sym=X
Ene= 0.682532
Spin=Alpha
Occup=0
     1   -3.564056282380e-15
     2   -1.081759622045e-14
     3    7.266874204630e-14
     4   -6.566717669193e-16
     5   -4.375881582340e-01
     6   -3.108861981935e-14
     7    3.005694124474e-02
     8   -2.141799190358e-01
     9   -1.200704390708e-17
    10   -6.447318521819e-01
    11    8.154668854319e-02
    12   -3.005694124473e-02
    13    2.141799190357e-01
    14    1.014067069667e-15
    15   -6.447318521820e-01
    16   -8.154668854331e-02
    17   -8.192304926792e-02
    18    4.915598730551e-01
    19    6.165686179060e-16
    20   -4.625766158254e-01
    21    2.264851045770e-02
    22    8.192304926793e-02
    23   -4.915598730551e-01
    24   -1.035600232378e-15
    25   -4.625766158254e-01
    26   -2.264851045773e-02
    27    6.326473056795e-01
    28   -6.326473056795e-01
    29    2.159785448159e-02
    30   -2.159785448159e-02

======= END OF MOLDEN-FORMAT MOLECULAR ORBITALS =======

          Ground-State Mulliken Net Atomic Charges

     Atom                 Charge (a.u.)
  ----------------------------------------
      1 H                     0.219880
      2 N                    -0.303639
      3 C                     0.018996
      4 C                     0.018996
      5 C                    -0.100165
      6 C                    -0.100165
      7 H                     0.067281
      8 H                     0.067281
      9 H                     0.055767
     10 H                     0.055767
  ----------------------------------------
  Sum of atomic charges =    -0.000000

 -----------------------------------------------------------------
                    Cartesian Multipole Moments
 -----------------------------------------------------------------
    Charge (ESU x 10^10)
                 0.0000
    Dipole Moment (Debye)
         X       0.0000      Y      -0.0000      Z       1.9116
       Tot       1.9116
    Quadrupole Moments (Debye-Ang)
        XX     -29.6907     XY       0.0000     YY     -25.9146
        XZ      -0.0000     YZ       0.0000     ZZ     -23.2951
    Octopole Moments (Debye-Ang^2)
       XXX       0.0000    XXY      -0.0000    XYY       0.0000
       YYY      -0.0000    XXZ       1.4730    XYZ       0.0000
       YYZ       2.6988    XZZ       0.0000    YZZ      -0.0000
       ZZZ      11.6771
    Hexadecapole Moments (Debye-Ang^3)
      XXXX     -23.2382   XXXY       0.0000   XXYY     -36.1556
      XYYY       0.0000   YYYY    -167.8861   XXXZ      -0.0000
      XXYZ       0.0000   XYYZ      -0.0000   YYYZ      -0.0000
      XXZZ     -34.6106   XYZZ       0.0000   YYZZ     -53.2786
      XZZZ      -0.0000   YZZZ       0.0000   ZZZZ    -145.4779
 -----------------------------------------------------------------
Archival summary:
1\1\Aeria.local\SP\HF\STO-3G\145\TueSep423:51:372018TueSep423:51:372018\0\\#,HF,STO-3G,\\0,1\N\H,1,1.01061\C,1,1.37148,2,124.922\H,3,1.08063,1,121.229,2,-0,0\C,1,1.37148,2,124.922,3,-180,0\H,5,1.08063,1,121.229,2,-0,0\C,3,1.38153,1,107.393,2,-180,0\H,7,1.08153,3,125.606,1,-180,0\C,5,1.38153,1,107.393,2,-180,0\H,9,1.08153,5,125.606,1,-180,0\\HF=-206.224565\\@

 Total job time:  1.10s(wall), 1.08s(cpu) 
 Tue Sep  4 23:51:37 2018

======= MOLDEN-FORMATTED INPUT FILE FOLLOWS =======
[Molden Format]
[Atoms] (Angs)
  H      1    1      0.00000000      0.00000000      2.12929600
  N      2    7      0.00000000      0.00000000      1.11868400
  C      3    6      0.00000000      1.12451600      0.33356500
  C      4    6      0.00000000     -1.12451600      0.33356500
  C      5    6      0.00000000      0.70840700     -0.98380700
  C      6    6      0.00000000     -0.70840700     -0.98380700
  H      7    1      0.00000000      2.11287200      0.77049600
  H      8    1      0.00000000     -2.11287200      0.77049600
  H      9    1      0.00000000      1.35725200     -1.84908500
  H     10    1      0.00000000     -1.35725200     -1.84908500
[GTO]
1    0
S    3    1.000000
   3.42525091E+00    1.54328970E-01 
   6.23913730E-01    5.35328140E-01 
   1.68855400E-01    4.44634540E-01 

2    0
S    3    1.000000
   9.91061690E+01    1.54328970E-01 
   1.80523120E+01    5.35328140E-01 
   4.88566020E+00    4.44634540E-01 
SP   3    1.000000
   3.78045590E+00   -9.99672300E-02   1.55916270E-01 
   8.78496600E-01    3.99512830E-01   6.07683720E-01 
   2.85714400E-01    7.00115470E-01   3.91957390E-01 

3    0
S    3    1.000000
   7.16168370E+01    1.54328970E-01 
   1.30450960E+01    5.35328140E-01 
   3.53051220E+00    4.44634540E-01 
SP   3    1.000000
   2.94124940E+00   -9.99672300E-02   1.55916270E-01 
   6.83483100E-01    3.99512830E-01   6.07683720E-01 
   2.22289900E-01    7.00115470E-01   3.91957390E-01 

4    0
S    3    1.000000
   7.16168370E+01    1.54328970E-01 
   1.30450960E+01    5.35328140E-01 
   3.53051220E+00    4.44634540E-01 
SP   3    1.000000
   2.94124940E+00   -9.99672300E-02   1.55916270E-01 
   6.83483100E-01    3.99512830E-01   6.07683720E-01 
   2.22289900E-01    7.00115470E-01   3.91957390E-01 

5    0
S    3    1.000000
   7.16168370E+01    1.54328970E-01 
   1.30450960E+01    5.35328140E-01 
   3.53051220E+00    4.44634540E-01 
SP   3    1.000000
   2.94124940E+00   -9.99672300E-02   1.55916270E-01 
   6.83483100E-01    3.99512830E-01   6.07683720E-01 
   2.22289900E-01    7.00115470E-01   3.91957390E-01 

6    0
S    3    1.000000
   7.16168370E+01    1.54328970E-01 
   1.30450960E+01    5.35328140E-01 
   3.53051220E+00    4.44634540E-01 
SP   3    1.000000
   2.94124940E+00   -9.99672300E-02   1.55916270E-01 
   6.83483100E-01    3.99512830E-01   6.07683720E-01 
   2.22289900E-01    7.00115470E-01   3.91957390E-01 

7    0
S    3    1.000000
   3.42525091E+00    1.54328970E-01 
   6.23913730E-01    5.35328140E-01 
   1.68855400E-01    4.44634540E-01 

8    0
S    3    1.000000
   3.42525091E+00    1.54328970E-01 
   6.23913730E-01    5.35328140E-01 
   1.68855400E-01    4.44634540E-01 

9    0
S    3    1.000000
   3.42525091E+00    1.54328970E-01 
   6.23913730E-01    5.35328140E-01 
   1.68855400E-01    4.44634540E-01 

10    0
S    3    1.000000
   3.42525091E+00    1.54328970E-01 
   6.23913730E-01    5.35328140E-01 
   1.68855400E-01    4.44634540E-01 

[MO]
Sym=X
Ene= -15.409499
Spin=Alpha
Occup=1
     1   -6.433029235261e-03
     2    9.932340787924e-01
     3    3.294722733144e-02
     4   -2.013292900410e-16
     5   -1.577297804542e-16
     6   -1.087271693456e-03
     7    4.825211061760e-04
     8   -6.114530364285e-03
     9   -8.238449251717e-17
    10    3.924130805495e-03
    11   -2.680629782193e-03
    12    4.825211061765e-04
    13   -6.114530364287e-03
    14    2.933237627079e-16
    15   -3.924130805495e-03
    16   -2.680629782192e-03
    17    3.787110483091e-06
    18    4.030332242042e-04
    19    6.900042088457e-17
    20   -4.479503579229e-05
    21    2.629139160633e-04
    22    3.787110486080e-06
    23    4.030332242058e-04
    24   -1.514586781596e-16
    25    4.479503579336e-05
    26    2.629139160635e-04
    27    2.417211382337e-04
    28    2.417211382336e-04
    29   -4.124713466095e-05
    30   -4.124713466155e-05
Sym=X
Ene= -11.037660
Spin=Alpha
Occup=1
     1   -2.536522313460e-14
     2    3.618750676352e-14
     3   -5.790591463998e-13
     4   -1.336543756101e-16
     5    4.537140147756e-03
     6    1.945078916557e-13
     7   -7.015716399821e-01
     8   -2.515774028048e-02
     9   -1.005471835479e-16
    10    1.690516104911e-03
    11    3.671226444110e-04
    12    7.015716400765e-01
    13    2.515774028382e-02
    14    2.228034473114e-17
    15    1.690516105044e-03
    16   -3.671226444353e-04
    17   -4.037206872704e-03
    18    4.966516466117e-03
    19    1.807087986217e-16
    20    1.046326913499e-03
    21    2.787743850877e-03
    22    4.037206873273e-03
    23   -4.966516466758e-03
    24    3.122558078828e-16
    25    1.046326913617e-03
    26   -2.787743851298e-03
    27    4.565239109173e-03
    28   -4.565239109814e-03
    29   -1.427181808007e-04
    30    1.427181807935e-04
Sym=X
Ene= -11.037443
Spin=Alpha
Occup=1
     1    3.628508966629e-04
     2   -5.383877545520e-04
     3    8.615330619017e-03
     4   -2.769898423285e-16
     5    3.051774212547e-13
     6   -2.893230684359e-03
     7   -7.017216580776e-01
     8   -2.480926492614e-02
     9    6.691175883581e-17
    10    9.956365420612e-04
    11    1.914398431049e-04
    12   -7.017216579831e-01
    13   -2.480926492276e-02
    14   -1.194271801037e-17
    15   -9.956365418331e-04
    16    1.914398430557e-04
    17   -2.423800627398e-03
    18    4.828343448749e-03
    19   -5.354373329295e-16
    20    8.875077045238e-04
    21    3.136092807168e-03
    22   -2.423800626643e-03
    23    4.828343448089e-03
    24    2.548852629804e-16
    25   -8.875077043825e-04
    26    3.136092806794e-03
    27    4.760326618611e-03
    28    4.760326617998e-03
    29    4.019019061731e-05
    30    4.019019063503e-05
Sym=X
Ene= -10.986696
Spin=Alpha
Occup=1
     1   -1.285874631069e-04
     2    4.134831775300e-05
     3    4.082150379161e-04
     4    2.115040442505e-16
     5    1.164368415342e-14
     6    1.295341500070e-04
     7   -1.831398413613e-03
     8   -5.264048654763e-03
     9   -2.038706768139e-17
    10    1.127350920346e-03
    11    3.114894227422e-03
    12   -1.831398413376e-03
    13   -5.264048654040e-03
    14   -1.604982328441e-16
    15   -1.127350920239e-03
    16    3.114894227001e-03
    17    7.018367465558e-01
    18    2.096021950450e-02
    19    2.547924934881e-16
    20    2.539389183694e-03
    21    1.452043487036e-03
    22    7.018367464627e-01
    23    2.096021950042e-02
    24    2.962262975544e-17
    25   -2.539389184202e-03
    26    1.452043486855e-03
    27    2.057467935195e-05
    28    2.057467932944e-05
    29   -4.621770905565e-03
    30   -4.621770904932e-03
Sym=X
Ene= -10.986536
Spin=Alpha
Occup=1
     1    8.143324654178e-15
     2   -1.235823294987e-15
     3   -2.582597530014e-14
     4    1.199157795718e-16
     5    1.831906539145e-04
     6   -9.136690845758e-15
     7   -3.613802465911e-03
     8   -5.511509891552e-03
     9    1.205082584267e-16
    10    8.149336465744e-04
    11    3.172379660817e-03
    12    3.613802465943e-03
    13    5.511509892243e-03
    14   -1.887585699065e-16
    15    8.149336467239e-04
    16   -3.172379661229e-03
    17    7.012475400990e-01
    18    3.075937374117e-02
    19    1.699168756840e-16
    20   -3.830234526784e-03
    21    1.375926422845e-03
    22   -7.012475401922e-01
    23   -3.075937374395e-02
    24   -3.837796535506e-17
    25   -3.830234526448e-03
    26   -1.375926423037e-03
    27    1.845482904510e-04
    28   -1.845482904527e-04
    29   -4.763556631425e-03
    30    4.763556632037e-03
Sym=X
Ene= -1.225058
Spin=Alpha
Occup=1
     1   -9.872270828079e-02
     2    1.919805705669e-01
     3   -6.209198450143e-01
     4    7.278682109727e-16
     5    1.074054407817e-15
     6    6.453537007723e-02
     7    9.603053369219e-02
     8   -2.162185833399e-01
     9   -9.161004021073e-18
    10    8.655040062946e-02
    11   -2.587991102264e-02
    12    9.603053369219e-02
    13   -2.162185833399e-01
    14   -7.019029066229e-16
    15   -8.655040062946e-02
    16   -2.587991102264e-02
    17    4.996753507271e-02
    18   -1.125309318186e-01
    19    1.189917331828e-16
    20    1.723835884943e-02
    21   -4.500050919663e-02
    22    4.996753507271e-02
    23   -1.125309318186e-01
    24   -3.640816656942e-16
    25   -1.723835884943e-02
    26   -4.500050919663e-02
    27   -3.326796810744e-02
    28   -3.326796810744e-02
    29   -1.416596960246e-02
    30   -1.416596960245e-02
Sym=X
Ene= -0.975717
Spin=Alpha
Occup=1
     1   -1.524749756499e-01
     2    1.066250494666e-01
     3   -3.864269446108e-01
     4    1.916507769250e-15
     5   -5.068322483457e-15
     6   -1.277408581967e-01
     7   -4.238860319703e-02
     8    1.120374519889e-01
     9   -5.948216727497e-16
    10   -6.966220926050e-04
    11   -1.403798677649e-01
    12   -4.238860319704e-02
    13    1.120374519889e-01
    14   -3.472371827064e-15
    15    6.966220926039e-04
    16   -1.403798677649e-01
    17   -1.467061540988e-01
    18    3.832185968962e-01
    19    2.193186842194e-15
    20   -7.192531959907e-02
    21    4.284103597428e-02
    22   -1.467061540988e-01
    23    3.832185968962e-01
    24    8.426066683733e-17
    25    7.192531959906e-02
    26    4.284103597429e-02
    27    1.549302402365e-02
    28    1.549302402366e-02
    29    8.837832978006e-02
    30    8.837832978007e-02
Sym=X
Ene= -0.912007
Spin=Alpha
Occup=1
     1   -5.274149838569e-15
     2    2.851353450599e-15
     3   -1.013008782385e-14
     4    3.592326592623e-15
     5    2.587575677563e-01
     6   -7.117207938240e-15
     7   -1.537015346162e-01
     8    4.300989660817e-01
     9   -1.257362385226e-15
    10   -1.057681646237e-02
    11   -1.484672536189e-02
    12    1.537015346162e-01
    13   -4.300989660817e-01
    14   -8.307111867190e-15
    15   -1.057681646236e-02
    16    1.484672536188e-02
    17   -7.921431933284e-02
    18    2.169970135794e-01
    19    5.202330897492e-15
    20    8.129689615712e-02
    21    8.214575038126e-02
    22    7.921431933283e-02
    23   -2.169970135794e-01
    24    4.633052145193e-16
    25    8.129689615713e-02
    26   -8.214575038125e-02
    27    1.360880250796e-01
    28   -1.360880250796e-01
    29    6.332462157950e-02
    30   -6.332462157949e-02
Sym=X
Ene= -0.733165
Spin=Alpha
Occup=1
     1    3.097305352485e-01
     2   -4.083119762154e-02
     3    1.606802632559e-01
     4   -2.695412416409e-15
     5    2.103540350811e-14
     6    3.937619433404e-01
     7    8.456314398272e-02
     8   -2.539694928963e-01
     9   -1.434116525606e-15
    10    8.325855293070e-03
    11   -7.467101038189e-03
    12    8.456314398273e-02
    13   -2.539694928963e-01
    14   -9.364583817034e-16
    15   -8.325855293069e-03
    16   -7.467101038223e-03
    17   -7.855542163894e-02
    18    2.422532882007e-01
    19   -1.147650204520e-15
    20   -7.582503875517e-02
    21   -1.776117782262e-01
    22   -7.855542163896e-02
    23    2.422532882008e-01
    24    3.170034229976e-16
    25    7.582503875515e-02
    26   -1.776117782262e-01
    27   -1.042320343498e-01
    28   -1.042320343498e-01
    29    1.535198088159e-01
    30    1.535198088159e-01
Sym=X
Ene= -0.704663
Spin=Alpha
Occup=1
     1   -1.615586412885e-14
     2    2.891875502508e-15
     3   -1.110645804689e-14
     4    4.386217208267e-15
     5    3.253595415970e-01
     6   -1.845874258949e-14
     7   -3.523572906078e-02
     8    1.084122051677e-01
     9    1.450548246251e-15
    10   -4.324075317161e-03
    11    2.529868609210e-01
    12    3.523572906076e-02
    13   -1.084122051677e-01
    14   -4.390717026508e-15
    15   -4.324075317183e-03
    16   -2.529868609210e-01
    17    1.119001686076e-01
    18   -3.339308968796e-01
    19    2.539249466504e-15
    20   -1.490634860046e-01
    21    3.069188848923e-02
    22   -1.119001686076e-01
    23    3.339308968795e-01
    24   -7.046548603648e-16
    25   -1.490634860046e-01
    26   -3.069188848921e-02
    27    1.044270128330e-01
    28   -1.044270128330e-01
    29   -2.125614855627e-01
    30    2.125614855627e-01
Sym=X
Ene= -0.681609
Spin=Alpha
Occup=1
     1    1.186370654888e-01
     2    3.534925321634e-02
     3   -1.387729902115e-01
     4    2.367081771873e-15
     5   -7.620605856997e-15
     6    2.422177978177e-01
     7   -6.856347620137e-02
     8    2.266725513695e-01
     9    5.383868059763e-16
    10    2.905925394917e-01
    11    3.472671890389e-02
    12   -6.856347620137e-02
    13    2.266725513695e-01
    14   -1.869515313764e-15
    15   -2.905925394917e-01
    16    3.472671890391e-02
    17   -4.335718398154e-04
    18    1.400316714281e-02
    19    1.126746095166e-15
    20    1.529892391578e-01
    21   -3.750425980440e-02
    22   -4.335718398054e-04
    23    1.400316714278e-02
    24   -1.021489430946e-15
    25   -1.529892391578e-01
    26   -3.750425980440e-02
    27    2.849902868226e-01
    28    2.849902868226e-01
    29    7.983453970887e-02
    30    7.983453970885e-02
Sym=X
Ene= -0.527823
Spin=Alpha
Occup=1
     1    3.023054189142e-01
     2    3.462376850883e-02
     3   -1.585231453380e-01
     4   -4.081344890247e-15
     5    7.114261826931e-14
     6    3.903194206445e-01
     7   -6.471545353016e-03
     8    1.209982580413e-02
     9   -3.760854854604e-15
    10    4.214641276960e-02
    11   -2.303194662906e-01
    12   -6.471545353022e-03
    13    1.209982580415e-02
    14   -1.674659676712e-14
    15   -4.214641276970e-02
    16   -2.303194662906e-01
    17   -1.430103851418e-02
    18    3.806886407075e-02
    19    3.833148681179e-15
    20   -1.177255848624e-01
    21    3.219366882247e-01
    22   -1.430103851417e-02
    23    3.806886407072e-02
    24   -5.431524523101e-15
    25    1.177255848624e-01
    26    3.219366882247e-01
    27   -2.793185142182e-02
    28   -2.793185142174e-02
    29   -2.616321585725e-01
    30   -2.616321585725e-01
Sym=X
Ene= -0.521670
Spin=Alpha
Occup=1
     1   -3.989911485365e-14
     2   -4.980506637765e-15
     3    2.247368962393e-14
     4    6.824377044441e-14
     5    4.445407504794e-01
     6   -5.294331801709e-14
     7    2.855511405589e-03
     8   -9.079704374367e-03
     9    3.508136255049e-14
    10   -3.920622665381e-01
    11    8.150550832175e-03
    12   -2.855511405587e-03
    13    9.079704374362e-03
    14    3.420495390312e-14
    15   -3.920622665381e-01
    16   -8.150550832111e-03
    17   -2.897898478115e-02
    18    9.404267320313e-02
    19    2.347804853745e-14
    20    6.902976577504e-03
    21    1.936140321530e-02
    22    2.897898478116e-02
    23   -9.404267320314e-02
    24    2.276982394133e-14
    25    6.902976577482e-03
    26   -1.936140321539e-02
    27   -3.424513033400e-01
    28    3.424513033400e-01
    29    4.114096171913e-02
    30   -4.114096171906e-02
Sym=X
Ene= -0.517237
Spin=Alpha
Occup=1
     1   -5.785356878316e-15
     2   -6.032184060888e-16
     3    3.178175160783e-15
     4   -6.249610700832e-01
     5    4.663357756820e-14
     6   -6.901458387053e-15
     7    1.329606930317e-16
     8   -5.643727435471e-16
     9   -3.382217584229e-01
    10   -4.179152481781e-14
    11    4.366329503588e-15
    12   -1.864705558417e-16
    13    7.484325989823e-17
    14   -3.382217584229e-01
    15   -4.149935995484e-14
    16    2.454582860495e-15
    17   -2.418282592366e-15
    18    8.329864312185e-15
    19   -2.217146062033e-01
    20    1.308423000476e-15
    21   -1.161576781225e-15
    22    3.276185931105e-15
    23   -1.066750174164e-14
    24   -2.217146062033e-01
    25   -1.929794128292e-15
    26   -7.090225905031e-15
    27   -3.473491474321e-14
    28    3.783935353822e-14
    29    7.008854320989e-15
    30    1.674962782566e-16
Sym=X
Ene= -0.481575
Spin=Alpha
Occup=1
     1    1.545814951848e-14
     2    2.634081939081e-15
     3   -1.310171030995e-14
     4    1.421976931729e-15
     5   -1.932945428051e-01
     6    1.996422068127e-14
     7   -4.303794363725e-02
     8    1.475424557577e-01
     9    5.622061790420e-16
    10   -6.521208348560e-02
    11   -3.018126071724e-01
    12    4.303794363725e-02
    13   -1.475424557577e-01
    14   -7.450545038395e-16
    15   -6.521208348561e-02
    16    3.018126071724e-01
    17    5.081223447302e-03
    18   -2.425170707006e-02
    19    2.911336774068e-15
    20   -5.418737482361e-02
    21    3.668089512317e-01
    22   -5.081223447306e-03
    23    2.425170707007e-02
    24    4.580843039491e-16
    25   -5.418737482357e-02
    26   -3.668089512317e-01
    27   -8.128583454646e-02
    28    8.128583454647e-02
    29   -3.293263620651e-01
    30    3.293263620651e-01
Sym=X
Ene= -0.461830
Spin=Alpha
Occup=1
     1    7.222864781188e-02
     2   -1.499022923230e-02
     3    6.921330747427e-02
     4    2.020703506301e-15
     5   -2.606878511597e-15
     6    3.345204155480e-02
     7   -6.050916337646e-03
     8    1.969308517169e-02
     9    1.154538367928e-15
    10   -1.111951012963e-01
    11   -2.446503181103e-01
    12   -6.050916337643e-03
    13    1.969308517169e-02
    14   -9.564277350796e-15
    15    1.111951012963e-01
    16   -2.446503181103e-01
    17    1.398558863506e-02
    18   -5.475613492980e-02
    19    6.834644556773e-15
    20    4.668598460946e-01
    21    9.266085640940e-02
    22    1.398558863506e-02
    23   -5.475613492980e-02
    24   -5.885113227664e-16
    25   -4.668598460946e-01
    26    9.266085640937e-02
    27   -2.023064465045e-01
    28   -2.023064465045e-01
    29    1.723242267392e-01
    30    1.723242267392e-01
Sym=X
Ene= -0.280696
Spin=Alpha
Occup=1
     1    2.421516603609e-16
     2   -1.319416674965e-16
     3    4.233435366507e-16
     4    6.027243713486e-01
     5   -6.064460046799e-16
     6   -2.512554625558e-16
     7   -1.101112431763e-16
     8   -6.358617251639e-17
     9   -6.875141089816e-02
    10   -2.630901796139e-16
    11   -2.045884533496e-15
    12    1.079000287643e-16
    13    2.354392622121e-16
    14   -6.875141089815e-02
    15    1.306639031371e-15
    16    3.830570626350e-16
    17   -2.018641129551e-16
    18    5.290434614721e-16
    19   -5.221544758248e-01
    20    8.794333212664e-16
    21    5.630577171010e-17
    22    1.384862782459e-16
    23   -6.333009426573e-16
    24   -5.221544758248e-01
    25   -7.851521553191e-16
    26   -4.859736367087e-16
    27    1.409603006303e-16
    28   -1.588351786909e-15
    29   -4.010682232188e-16
    30    7.729710962091e-16
Sym=X
Ene= -0.232791
Spin=Alpha
Occup=1
     1   -2.844376123134e-15
     2   -5.385083131737e-16
     3    1.838944845505e-15
     4    4.331966915674e-15
     5   -2.283052652406e-15
     6   -5.399769281967e-15
     7    1.624051788503e-15
     8   -4.396632196231e-15
     9    5.845994062648e-01
    10    1.325690814978e-15
    11    4.472916316747e-15
    12   -9.391517272300e-16
    13    2.822256081442e-15
    14   -5.845994062648e-01
    15    7.274743406767e-16
    16    6.960276444092e-15
    17    1.920917658006e-16
    18    3.536572857743e-16
    19    3.486994531226e-01
    20   -3.386934608758e-15
    21   -6.353357122291e-15
    22    3.370984106777e-16
    23   -8.602439732643e-16
    24   -3.486994531226e-01
    25    2.572421151741e-15
    26   -2.675582382502e-15
    27    1.779720495374e-16
    28    2.017063406187e-15
    29    1.061729591841e-15
    30    5.915412203858e-17
Sym=X
Ene= 0.322429
Spin=Alpha
Occup=0
     1   -1.245726004238e-15
     2   -4.640609733485e-16
     3    1.652008114556e-15
     4    5.665454509440e-01
     5    3.743864660897e-16
     6   -5.065239319298e-15
     7    1.831365213590e-15
     8   -4.821420533539e-15
     9   -6.533617026222e-01
    10    4.594037280281e-15
    11    2.117078937237e-15
    12   -1.267810610378e-15
    13    4.219895185433e-15
    14   -6.533617026223e-01
    15    1.147601410744e-15
    16    8.061044887351e-15
    17   -2.990623954926e-17
    18    3.169900915410e-15
    19    3.405628709748e-01
    20   -5.358333371668e-15
    21   -6.302782001121e-15
    22    4.755571117213e-16
    23   -2.122459997789e-15
    24    3.405628709748e-01
    25   -3.247344162325e-15
    26    7.813853027050e-16
    27   -1.261586443507e-15
    28   -3.372202901898e-16
    29   -1.807935028362e-15
    30    5.587082962102e-17
Sym=X
Ene= 0.408590
Spin=Alpha
Occup=0
     1    9.570446172885e-16
     2    2.436679674972e-16
     3   -1.559403478672e-15
     4    2.106971562002e-15
     5    8.946380848764e-16
     6   -5.370515724292e-16
     7    2.788105354208e-16
     8   -1.267880393109e-15
     9   -4.491802823313e-01
    10    2.960182696763e-16
    11    1.651286225613e-15
    12   -6.523978789479e-17
    13    4.820708190751e-16
    14    4.491802823313e-01
    15    9.634576972398e-16
    16    9.637168507333e-16
    17    1.526056109738e-16
    18   -7.624389268994e-16
    19    7.332059897309e-01
    20    5.027764259298e-16
    21    9.805321268284e-16
    22   -1.336044040476e-16
    23    7.401943801403e-16
    24   -7.332059897309e-01
    25    1.285803482274e-15
    26    3.568934531938e-17
    27   -2.103391237910e-16
    28    2.653544864895e-16
    29    1.424056347570e-15
    30    4.763035018136e-16
Sym=X
Ene= 0.564072
Spin=Alpha
Occup=0
     1   -9.443013517713e-01
     2   -1.401476812945e-01
     3    9.561354653354e-01
     4   -2.636279453321e-16
     5   -5.772064529524e-16
     6    4.077093489254e-01
     7    1.318874715754e-03
     8    3.042780965376e-02
     9   -3.888062839498e-17
    10    3.682604145797e-01
    11   -9.055901784214e-02
    12    1.318874715756e-03
    13    3.042780965375e-02
    14    8.839161518025e-16
    15   -3.682604145797e-01
    16   -9.055901784213e-02
    17   -4.655105961727e-02
    18    2.881658571539e-01
    19    8.754544413083e-16
    20    1.184030328484e-01
    21   -1.716918123891e-01
    22   -4.655105961728e-02
    23    2.881658571540e-01
    24   -9.383677700026e-16
    25   -1.184030328484e-01
    26   -1.716918123891e-01
    27   -2.912417211531e-01
    28   -2.912417211530e-01
    29   -4.113154195925e-01
    30   -4.113154195926e-01
Sym=X
Ene= 0.643272
Spin=Alpha
Occup=0
     1    2.819339335989e-01
     2    1.251834682238e-01
     3   -8.322818026140e-01
     4    4.116692937450e-16
     5    2.506233418847e-14
     6    1.398642963902e-01
     7   -1.464373202629e-01
     8    8.962799706395e-01
     9    8.082653994311e-16
    10    7.940120786758e-02
    11    3.563069223410e-01
    12   -1.464373202629e-01
    13    8.962799706396e-01
    14    1.327031431553e-16
    15   -7.940120786764e-02
    16    3.563069223410e-01
    17    5.528843584376e-03
    18   -1.005748762416e-02
    19   -1.186340231880e-15
    20    1.123493639161e-02
    21   -1.886759093395e-01
    22    5.528843584390e-03
    23   -1.005748762425e-02
    24    1.756541880926e-16
    25   -1.123493639162e-02
    26   -1.886759093395e-01
    27   -7.224325614087e-01
    28   -7.224325614089e-01
    29   -1.341854790764e-01
    30   -1.341854790764e-01
Sym=X
Ene= 0.682532
Spin=Alpha
Occup=0
     1   -3.564056282380e-15
     2   -1.081759622045e-14
     3    7.266874204630e-14
     4   -6.566717669193e-16
     5   -4.375881582340e-01
     6   -3.108861981935e-14
     7    3.005694124474e-02
     8   -2.141799190358e-01
     9   -1.200704390708e-17
    10   -6.447318521819e-01
    11    8.154668854319e-02
    12   -3.005694124473e-02
    13    2.141799190357e-01
    14    1.014067069667e-15
    15   -6.447318521820e-01
    16   -8.154668854331e-02
    17   -8.192304926792e-02
    18    4.915598730551e-01
    19    6.165686179060e-16
    20   -4.625766158254e-01
    21    2.264851045770e-02
    22    8.192304926793e-02
    23   -4.915598730551e-01
    24   -1.035600232378e-15
    25   -4.625766158254e-01
    26   -2.264851045773e-02
    27    6.326473056795e-01
    28   -6.326473056795e-01
    29    2.159785448159e-02
    30   -2.159785448159e-02

======= END OF MOLDEN-FORMATTED INPUT FILE =======


        *************************************************************
        *                                                           *
        *  Thank you very much for using Q-Chem.  Have a nice day.  *
        *                                                           *
        *************************************************************


--------------------------------------------------------------
 ----------------------------------------------------------------
             Standard Nuclear Orientation (Angstroms)
    I     Atom           X                Y                Z
 ----------------------------------------------------------------
    1      H       0.0000000000     0.0000000000     2.1292960000
    2      N       0.0000000000     0.0000000000     1.1186840000
    3      C       0.0000000000     1.1245160000     0.3335650000
    4      C       0.0000000000    -1.1245160000     0.3335650000
    5      C       0.0000000000     0.7084070000    -0.9838070000
    6      C       0.0000000000    -0.7084070000    -0.9838070000
    7      H       0.0000000000     2.1128720000     0.7704960000
    8      H       0.0000000000    -2.1128720000     0.7704960000
    9      H       0.0000000000     1.3572520000    -1.8490850000
   10      H       0.0000000000    -1.3572520000    -1.8490850000
 ----------------------------------------------------------------
 Nuclear Repulsion Energy =   160.9055224922 hartrees
 There are       18 alpha and       18 beta electrons
 Requested basis set is STO-3G
 There are 15 shells and 30 basis functions

 Total QAlloc Memory Limit   2000 MB
 Mega-Array Size       188 MB
 MEM_STATIC part       192 MB

                       Distance Matrix (Angstroms)
             H (  1)   N (  2)   C (  3)   C (  4)   C (  5)   C (  6)
   N (  2)  1.010612
   C (  3)  2.118770  1.371477
   C (  4)  2.118770  1.371477  2.249032
   C (  5)  3.192687  2.218628  1.381527  2.257227
   C (  6)  3.192687  2.218628  2.257227  1.381527  1.416814
   H (  7)  2.512084  2.141369  1.080628  3.266740  2.247243  3.322227
   H (  8)  2.512084  2.141369  3.266740  1.080628  3.322227  2.247243
   H (  9)  4.203528  3.263401  2.195023  3.305016  1.081529  2.239565
   H ( 10)  4.203528  3.263401  3.305016  2.195023  2.239565  1.081529
             H (  7)   H (  8)   H (  9)
   H (  8)  4.225744
   H (  9)  2.726383  4.347869
   H ( 10)  4.347869  2.726383  2.714504
 
 A cutoff of  1.0D-08 yielded    115 shell pairs
 There are       490 function pairs
 Smallest overlap matrix eigenvalue = 1.80E-01

 Scale SEOQF with 1.000000e+00/1.000000e-01/1.000000e-01

 Standard Electronic Orientation quadrupole field applied
 Nucleus-field energy     =    -0.0000000013 hartrees
 Guess from superposition of atomic densities
 Warning:  Energy on first SCF cycle will be non-variational
 SAD guess density has 36.000000 electrons

 -----------------------------------------------------------------------
  General SCF calculation program by
  Eric Jon Sundstrom, Paul Horn, Yuezhi Mao, Dmitri Zuev, Alec White,
  David Stuck, Shaama M.S., Shane Yost, Joonho Lee, David Small,
  Daniel Levine, Susi Lehtola, Hugh Burton, Evgeny Epifanovsky
 -----------------------------------------------------------------------
 Hartree-Fock
 A restricted SCF calculation will be
 performed using DIIS
 SCF converges when DIIS error is below 1.0e-05
 ---------------------------------------
  Cycle       Energy         DIIS error
 ---------------------------------------
    1    -206.4700208137      2.23e-01  
    2    -206.1918120389      1.32e-02  
    3    -206.2208133101      4.91e-03  
    4    -206.2239774843      1.84e-03  
    5    -206.2245545250      1.63e-04  
    6    -206.2245627008      6.61e-05  
    7    -206.2245647881      2.37e-05  
    8    -206.2245649877      3.99e-06  Convergence criterion met
 ---------------------------------------
 SCF time:   CPU 0.93s  wall 1.00s 
 SCF   energy in the final basis set =     -206.2245649877
 Total energy in the final basis set =     -206.2245649877
 
 --------------------------------------------------------------
 
                    Orbital Energies (a.u.)
 --------------------------------------------------------------
 
 Alpha MOs
 -- Occupied --
-15.409 -11.038 -11.037 -10.987 -10.987  -1.225  -0.976  -0.912
 -0.733  -0.705  -0.682  -0.528  -0.522  -0.517  -0.482  -0.462
 -0.281  -0.233
 -- Virtual --
  0.322   0.409   0.564   0.643   0.683   0.693   0.717   0.779
  0.795   0.971   1.048   1.143
 --------------------------------------------------------------
 

                        RESTRICTED (RHF) MOLECULAR ORBITAL COEFFICIENTS
                         1         2         3         4         5         6
 eigenvalues:        -15.409   -11.038   -11.037   -10.987   -10.987    -1.225
   1  H 1   s       -0.00643  -0.00000   0.00036  -0.00013   0.00000  -0.09872
   2  N     s        0.99323   0.00000  -0.00054   0.00004  -0.00000   0.19198
   3  N     s        0.03295  -0.00000   0.00862   0.00041  -0.00000  -0.62092
   4  N     px      -0.00000  -0.00000  -0.00000   0.00000   0.00000   0.00000
   5  N     py      -0.00000   0.00454   0.00000   0.00000   0.00018   0.00000
   6  N     pz      -0.00109   0.00000  -0.00289   0.00013  -0.00000   0.06454
   7  C 1   s        0.00048  -0.70157  -0.70172  -0.00183  -0.00361   0.09603
   8  C 1   s       -0.00611  -0.02516  -0.02481  -0.00526  -0.00551  -0.21622
   9  C 1   px      -0.00000  -0.00000   0.00000  -0.00000   0.00000  -0.00000
  10  C 1   py       0.00392   0.00169   0.00100   0.00113   0.00081   0.08655
  11  C 1   pz      -0.00268   0.00037   0.00019   0.00311   0.00317  -0.02588
  12  C 2   s        0.00048   0.70157  -0.70172  -0.00183   0.00361   0.09603
  13  C 2   s       -0.00611   0.02516  -0.02481  -0.00526   0.00551  -0.21622
[...]
    15    1.690516105044e-03
    16   -3.671226444353e-04
    17   -4.037206872704e-03
    18    4.966516466117e-03
    19    1.807087986217e-16
    20    1.046326913499e-03
    21    2.787743850877e-03
    22    4.037206873273e-03
    23   -4.966516466758e-03
    24    3.122558078828e-16
    25    1.046326913617e-03
    26   -2.787743851298e-03
    27    4.565239109173e-03
    28   -4.565239109814e-03
    29   -1.427181808007e-04
    30    1.427181807935e-04
Sym=X
Ene= -11.037443
Spin=Alpha
Occup=1
     1    3.628508966629e-04
     2   -5.383877545520e-04
     3    8.615330619017e-03
     4   -2.769898423285e-16
     5    3.051774212547e-13
     6   -2.893230684359e-03
     7   -7.017216580776e-01
     8   -2.480926492614e-02
     9    6.691175883581e-17
    10    9.956365420612e-04
    11    1.914398431049e-04
    12   -7.017216579831e-01
    13   -2.480926492276e-02
    14   -1.194271801037e-17
    15   -9.956365418331e-04
    16    1.914398430557e-04
    17   -2.423800627398e-03
    18    4.828343448749e-03
    19   -5.354373329295e-16
    20    8.875077045238e-04
    21    3.136092807168e-03
    22   -2.423800626643e-03
    23    4.828343448089e-03
    24    2.548852629804e-16
    25   -8.875077043825e-04
    26    3.136092806794e-03
    27    4.760326618611e-03
    28    4.760326617998e-03
    29    4.019019061731e-05
    30    4.019019063503e-05
Sym=X
Ene= -10.986696
Spin=Alpha
Occup=1
     1   -1.285874631069e-04
     2    4.134831775300e-05
     3    4.082150379161e-04
     4    2.115040442505e-16
     5    1.164368415342e-14
     6    1.295341500070e-04
     7   -1.831398413613e-03
     8   -5.264048654763e-03
     9   -2.038706768139e-17
    10    1.127350920346e-03
    11    3.114894227422e-03
    12   -1.831398413376e-03
    13   -5.264048654040e-03
    14   -1.604982328441e-16
    15   -1.127350920239e-03
    16    3.114894227001e-03
    17    7.018367465558e-01
    18    2.096021950450e-02
    19    2.547924934881e-16
    20    2.539389183694e-03
    21    1.452043487036e-03
    22    7.018367464627e-01
    23    2.096021950042e-02
    24    2.962262975544e-17
    25   -2.539389184202e-03
    26    1.452043486855e-03
    27    2.057467935195e-05
    28    2.057467932944e-05
    29   -4.621770905565e-03
    30   -4.621770904932e-03
Sym=X
Ene= -10.986536
Spin=Alpha
Occup=1
     1    8.143324654178e-15
     2   -1.235823294987e-15
     3   -2.582597530014e-14
     4    1.199157795718e-16
     5    1.831906539145e-04
     6   -9.136690845758e-15
     7   -3.613802465911e-03
     8   -5.511509891552e-03
     9    1.205082584267e-16
    10    8.149336465744e-04
    11    3.172379660817e-03
    12    3.613802465943e-03
    13    5.511509892243e-03
    14   -1.887585699065e-16
    15    8.149336467239e-04
    16   -3.172379661229e-03
    17    7.012475400990e-01
    18    3.075937374117e-02
    19    1.699168756840e-16
    20   -3.830234526784e-03
    21    1.375926422845e-03
    22   -7.012475401922e-01
    23   -3.075937374395e-02
    24   -3.837796535506e-17
    25   -3.830234526448e-03
    26   -1.375926423037e-03
    27    1.845482904510e-04
    28   -1.845482904527e-04
    29   -4.763556631425e-03
    30    4.763556632037e-03
Sym=X
Ene= -1.225058
Spin=Alpha
Occup=1
     1   -9.872270828079e-02
     2    1.919805705669e-01
     3   -6.209198450143e-01
     4    7.278682109727e-16
     5    1.074054407817e-15
     6    6.453537007723e-02
     7    9.603053369219e-02
     8   -2.162185833399e-01
     9   -9.161004021073e-18
    10    8.655040062946e-02
    11   -2.587991102264e-02
    12    9.603053369219e-02
    13   -2.162185833399e-01
    14   -7.019029066229e-16
    15   -8.655040062946e-02
    16   -2.587991102264e-02
    17    4.996753507271e-02
    18   -1.125309318186e-01
    19    1.189917331828e-16
    20    1.723835884943e-02
    21   -4.500050919663e-02
    22    4.996753507271e-02
    23   -1.125309318186e-01
    24   -3.640816656942e-16
    25   -1.723835884943e-02
    26   -4.500050919663e-02
    27   -3.326796810744e-02
    28   -3.326796810744e-02
    29   -1.416596960246e-02
    30   -1.416596960245e-02
Sym=X
Ene= -0.975717
Spin=Alpha
Occup=1
     1   -1.524749756499e-01
     2    1.066250494666e-01
     3   -3.864269446108e-01
     4    1.916507769250e-15
     5   -5.068322483457e-15
     6   -1.277408581967e-01
     7   -4.238860319703e-02
     8    1.120374519889e-01
     9   -5.948216727497e-16
    10   -6.966220926050e-04
    11   -1.403798677649e-01
    12   -4.238860319704e-02
    13    1.120374519889e-01
    14   -3.472371827064e-15
    15    6.966220926039e-04
    16   -1.403798677649e-01
    17   -1.467061540988e-01
    18    3.832185968962e-01
    19    2.193186842194e-15
    20   -7.192531959907e-02
    21    4.284103597428e-02
    22   -1.467061540988e-01
    23    3.832185968962e-01
    24    8.426066683733e-17
    25    7.192531959906e-02
    26    4.284103597429e-02
    27    1.549302402365e-02
    28    1.549302402366e-02
    29    8.837832978006e-02
    30    8.837832978007e-02
Sym=X
Ene= -0.912007
Spin=Alpha
Occup=1
     1   -5.274149838569e-15
     2    2.851353450599e-15
     3   -1.013008782385e-14
     4    3.592326592623e-15
     5    2.587575677563e-01
     6   -7.117207938240e-15
     7   -1.537015346162e-01
     8    4.300989660817e-01
     9   -1.257362385226e-15
    10   -1.057681646237e-02
    11   -1.484672536189e-02
    12    1.537015346162e-01
    13   -4.300989660817e-01
    14   -8.307111867190e-15
    15   -1.057681646236e-02
    16    1.484672536188e-02
    17   -7.921431933284e-02
    18    2.169970135794e-01
    19    5.202330897492e-15
    20    8.129689615712e-02
    21    8.214575038126e-02
    22    7.921431933283e-02
    23   -2.169970135794e-01
    24    4.633052145193e-16
    25    8.129689615713e-02
    26   -8.214575038125e-02
    27    1.360880250796e-01
    28   -1.360880250796e-01
    29    6.332462157950e-02
    30   -6.332462157949e-02
Sym=X
Ene= -0.733165
Spin=Alpha
Occup=1
     1    3.097305352485e-01
     2   -4.083119762154e-02
     3    1.606802632559e-01
     4   -2.695412416409e-15
     5    2.103540350811e-14
     6    3.937619433404e-01
     7    8.456314398272e-02
     8   -2.539694928963e-01
     9   -1.434116525606e-15
    10    8.325855293070e-03
    11   -7.467101038189e-03
    12    8.456314398273e-02
    13   -2.539694928963e-01
    14   -9.364583817034e-16
    15   -8.325855293069e-03
    16   -7.467101038223e-03
    17   -7.855542163894e-02
    18    2.422532882007e-01
    19   -1.147650204520e-15
    20   -7.582503875517e-02
    21   -1.776117782262e-01
    22   -7.855542163896e-02
    23    2.422532882008e-01
    24    3.170034229976e-16
    25    7.582503875515e-02
    26   -1.776117782262e-01
    27   -1.042320343498e-01
    28   -1.042320343498e-01
    29    1.535198088159e-01
    30    1.535198088159e-01
Sym=X
Ene= -0.704663
Spin=Alpha
Occup=1
     1   -1.615586412885e-14
     2    2.891875502508e-15
     3   -1.110645804689e-14
     4    4.386217208267e-15
     5    3.253595415970e-01
     6   -1.845874258949e-14
     7   -3.523572906078e-02
     8    1.084122051677e-01
     9    1.450548246251e-15
    10   -4.324075317161e-03
    11    2.529868609210e-01
    12    3.523572906076e-02
    13   -1.084122051677e-01
    14   -4.390717026508e-15
    15   -4.324075317183e-03
    16   -2.529868609210e-01
    17    1.119001686076e-01
    18   -3.339308968796e-01
    19    2.539249466504e-15
    20   -1.490634860046e-01
    21    3.069188848923e-02
    22   -1.119001686076e-01
    23    3.339308968795e-01
    24   -7.046548603648e-16
    25   -1.490634860046e-01
    26   -3.069188848921e-02
    27    1.044270128330e-01
    28   -1.044270128330e-01
    29   -2.125614855627e-01
    30    2.125614855627e-01
Sym=X
Ene= -0.681609
Spin=Alpha
Occup=1
     1    1.186370654888e-01
     2    3.534925321634e-02
     3   -1.387729902115e-01
     4    2.367081771873e-15
     5   -7.620605856997e-15
     6    2.422177978177e-01
     7   -6.856347620137e-02
     8    2.266725513695e-01
     9    5.383868059763e-16
    10    2.905925394917e-01
    11    3.472671890389e-02
    12   -6.856347620137e-02
    13    2.266725513695e-01
    14   -1.869515313764e-15
    15   -2.905925394917e-01
    16    3.472671890391e-02
    17   -4.335718398154e-04
    18    1.400316714281e-02
    19    1.126746095166e-15
    20    1.529892391578e-01
    21   -3.750425980440e-02
    22   -4.335718398054e-04
    23    1.400316714278e-02
    24   -1.021489430946e-15
    25   -1.529892391578e-01
    26   -3.750425980440e-02
    27    2.849902868226e-01
    28    2.849902868226e-01
    29    7.983453970887e-02
    30    7.983453970885e-02
Sym=X
Ene= -0.527823
Spin=Alpha
Occup=1
     1    3.023054189142e-01
     2    3.462376850883e-02
     3   -1.585231453380e-01
     4   -4.081344890247e-15
     5    7.114261826931e-14
     6    3.903194206445e-01
     7   -6.471545353016e-03
     8    1.209982580413e-02
     9   -3.760854854604e-15
    10    4.214641276960e-02
    11   -2.303194662906e-01
    12   -6.471545353022e-03
    13    1.209982580415e-02
    14   -1.674659676712e-14
    15   -4.214641276970e-02
    16   -2.303194662906e-01
    17   -1.430103851418e-02
    18    3.806886407075e-02
    19    3.833148681179e-15
    20   -1.177255848624e-01
    21    3.219366882247e-01
    22   -1.430103851417e-02
    23    3.806886407072e-02
    24   -5.431524523101e-15
    25    1.177255848624e-01
    26    3.219366882247e-01
    27   -2.793185142182e-02
    28   -2.793185142174e-02
    29   -2.616321585725e-01
    30   -2.616321585725e-01
Sym=X
Ene= -0.521670
Spin=Alpha
Occup=1
     1   -3.989911485365e-14
     2   -4.980506637765e-15
     3    2.247368962393e-14
     4    6.824377044441e-14
     5    4.445407504794e-01
     6   -5.294331801709e-14
     7    2.855511405589e-03
     8   -9.079704374367e-03
     9    3.508136255049e-14
    10   -3.920622665381e-01
    11    8.150550832175e-03
    12   -2.855511405587e-03
    13    9.079704374362e-03
    14    3.420495390312e-14
    15   -3.920622665381e-01
    16   -8.150550832111e-03
    17   -2.897898478115e-02
    18    9.404267320313e-02
    19    2.347804853745e-14
    20    6.902976577504e-03
    21    1.936140321530e-02
    22    2.897898478116e-02
    23   -9.404267320314e-02
    24    2.276982394133e-14
    25    6.902976577482e-03
    26   -1.936140321539e-02
    27   -3.424513033400e-01
    28    3.424513033400e-01
    29    4.114096171913e-02
    30   -4.114096171906e-02
Sym=X
Ene= -0.517237
Spin=Alpha
Occup=1
     1   -5.785356878316e-15
     2   -6.032184060888e-16
     3    3.178175160783e-15
     4   -6.249610700832e-01
     5    4.663357756820e-14
     6   -6.901458387053e-15
     7    1.329606930317e-16
     8   -5.643727435471e-16
     9   -3.382217584229e-01
    10   -4.179152481781e-14
    11    4.366329503588e-15
    12   -1.864705558417e-16
    13    7.484325989823e-17
    14   -3.382217584229e-01
    15   -4.149935995484e-14
    16    2.454582860495e-15
    17   -2.418282592366e-15
    18    8.329864312185e-15
    19   -2.217146062033e-01
    20    1.308423000476e-15
    21   -1.161576781225e-15
    22    3.276185931105e-15
    23   -1.066750174164e-14
    24   -2.217146062033e-01
    25   -1.929794128292e-15
    26   -7.090225905031e-15
    27   -3.473491474321e-14
    28    3.783935353822e-14
    29    7.008854320989e-15
    30    1.674962782566e-16
Sym=X
Ene= -0.481575
Spin=Alpha
Occup=1
     1    1.545814951848e-14
     2    2.634081939081e-15
     3   -1.310171030995e-14
     4    1.421976931729e-15
     5   -1.932945428051e-01
     6    1.996422068127e-14
     7   -4.303794363725e-02
     8    1.475424557577e-01
     9    5.622061790420e-16
    10   -6.521208348560e-02
    11   -3.018126071724e-01
    12    4.303794363725e-02
    13   -1.475424557577e-01
    14   -7.450545038395e-16
    15   -6.521208348561e-02
    16    3.018126071724e-01
    17    5.081223447302e-03
    18   -2.425170707006e-02
    19    2.911336774068e-15
    20   -5.418737482361e-02
    21    3.668089512317e-01
    22   -5.081223447306e-03
    23    2.425170707007e-02
    24    4.580843039491e-16
    25   -5.418737482357e-02
    26   -3.668089512317e-01
    27   -8.128583454646e-02
    28    8.128583454647e-02
    29   -3.293263620651e-01
    30    3.293263620651e-01
Sym=X
Ene= -0.461830
Spin=Alpha
Occup=1
     1    7.222864781188e-02
     2   -1.499022923230e-02
     3    6.921330747427e-02
     4    2.020703506301e-15
     5   -2.606878511597e-15
     6    3.345204155480e-02
     7   -6.050916337646e-03
     8    1.969308517169e-02
     9    1.154538367928e-15
    10   -1.111951012963e-01
    11   -2.446503181103e-01
    12   -6.050916337643e-03
    13    1.969308517169e-02
    14   -9.564277350796e-15
    15    1.111951012963e-01
    16   -2.446503181103e-01
    17    1.398558863506e-02
    18   -5.475613492980e-02
    19    6.834644556773e-15
    20    4.668598460946e-01
    21    9.266085640940e-02
    22    1.398558863506e-02
    23   -5.475613492980e-02
    24   -5.885113227664e-16
    25   -4.668598460946e-01
    26    9.266085640937e-02
    27   -2.023064465045e-01
    28   -2.023064465045e-01
    29    1.723242267392e-01
    30    1.723242267392e-01
Sym=X
Ene= -0.280696
Spin=Alpha
Occup=1
     1    2.421516603609e-16
     2   -1.319416674965e-16
     3    4.233435366507e-16
     4    6.027243713486e-01
     5   -6.064460046799e-16
     6   -2.512554625558e-16
     7   -1.101112431763e-16
     8   -6.358617251639e-17
     9   -6.875141089816e-02
    10   -2.630901796139e-16
    11   -2.045884533496e-15
    12    1.079000287643e-16
    13    2.354392622121e-16
    14   -6.875141089815e-02
    15    1.306639031371e-15
    16    3.830570626350e-16
    17   -2.018641129551e-16
    18    5.290434614721e-16
    19   -5.221544758248e-01
    20    8.794333212664e-16
    21    5.630577171010e-17
    22    1.384862782459e-16
    23   -6.333009426573e-16
    24   -5.221544758248e-01
    25   -7.851521553191e-16
    26   -4.859736367087e-16
    27    1.409603006303e-16
    28   -1.588351786909e-15
    29   -4.010682232188e-16
    30    7.729710962091e-16
Sym=X
Ene= -0.232791
Spin=Alpha
Occup=1
     1   -2.844376123134e-15
     2   -5.385083131737e-16
     3    1.838944845505e-15
     4    4.331966915674e-15
     5   -2.283052652406e-15
     6   -5.399769281967e-15
     7    1.624051788503e-15
     8   -4.396632196231e-15
     9    5.845994062648e-01
    10    1.325690814978e-15
    11    4.472916316747e-15
    12   -9.391517272300e-16
    13    2.822256081442e-15
    14   -5.845994062648e-01
    15    7.274743406767e-16
    16    6.960276444092e-15
    17    1.920917658006e-16
    18    3.536572857743e-16
    19    3.486994531226e-01
    20   -3.386934608758e-15
    21   -6.353357122291e-15
    22    3.370984106777e-16
    23   -8.602439732643e-16
    24   -3.486994531226e-01
    25    2.572421151741e-15
    26   -2.675582382502e-15
    27    1.779720495374e-16
    28    2.017063406187e-15
    29    1.061729591841e-15
    30    5.915412203858e-17
Sym=X
Ene= 0.322429
Spin=Alpha
Occup=0
     1   -1.245726004238e-15
     2   -4.640609733485e-16
     3    1.652008114556e-15
     4    5.665454509440e-01
     5    3.743864660897e-16
     6   -5.065239319298e-15
     7    1.831365213590e-15
     8   -4.821420533539e-15
     9   -6.533617026222e-01
    10    4.594037280281e-15
    11    2.117078937237e-15
    12   -1.267810610378e-15
    13    4.219895185433e-15
    14   -6.533617026223e-01
    15    1.147601410744e-15
    16    8.061044887351e-15
    17   -2.990623954926e-17
    18    3.169900915410e-15
    19    3.405628709748e-01
    20   -5.358333371668e-15
    21   -6.302782001121e-15
    22    4.755571117213e-16
    23   -2.122459997789e-15
    24    3.405628709748e-01
    25   -3.247344162325e-15
    26    7.813853027050e-16
    27   -1.261586443507e-15
    28   -3.372202901898e-16
    29   -1.807935028362e-15
    30    5.587082962102e-17
Sym=X
Ene= 0.408590
Spin=Alpha
Occup=0
     1    9.570446172885e-16
     2    2.436679674972e-16
     3   -1.559403478672e-15
     4    2.106971562002e-15
     5    8.946380848764e-16
     6   -5.370515724292e-16
     7    2.788105354208e-16
     8   -1.267880393109e-15
     9   -4.491802823313e-01
    10    2.960182696763e-16
    11    1.651286225613e-15
    12   -6.523978789479e-17
    13    4.820708190751e-16
    14    4.491802823313e-01
    15    9.634576972398e-16
    16    9.637168507333e-16
    17    1.526056109738e-16
    18   -7.624389268994e-16
    19    7.332059897309e-01
    20    5.027764259298e-16
    21    9.805321268284e-16
    22   -1.336044040476e-16
    23    7.401943801403e-16
    24   -7.332059897309e-01
    25    1.285803482274e-15
    26    3.568934531938e-17
    27   -2.103391237910e-16
    28    2.653544864895e-16
    29    1.424056347570e-15
    30    4.763035018136e-16
Sym=X
Ene= 0.564072
Spin=Alpha
Occup=0
     1   -9.443013517713e-01
     2   -1.401476812945e-01
     3    9.561354653354e-01
     4   -2.636279453321e-16
     5   -5.772064529524e-16
     6    4.077093489254e-01
     7    1.318874715754e-03
     8    3.042780965376e-02
     9   -3.888062839498e-17
    10    3.682604145797e-01
    11   -9.055901784214e-02
    12    1.318874715756e-03
    13    3.042780965375e-02
    14    8.839161518025e-16
    15   -3.682604145797e-01
    16   -9.055901784213e-02
    17   -4.655105961727e-02
    18    2.881658571539e-01
    19    8.754544413083e-16
    20    1.184030328484e-01
    21   -1.716918123891e-01
    22   -4.655105961728e-02
    23    2.881658571540e-01
    24   -9.383677700026e-16
    25   -1.184030328484e-01
    26   -1.716918123891e-01
    27   -2.912417211531e-01
    28   -2.912417211530e-01
    29   -4.113154195925e-01
    30   -4.113154195926e-01
Sym=X
Ene= 0.643272
Spin=Alpha
Occup=0
     1    2.819339335989e-01
     2    1.251834682238e-01
     3   -8.322818026140e-01
     4    4.116692937450e-16
     5    2.506233418847e-14
     6    1.398642963902e-01
     7   -1.464373202629e-01
     8    8.962799706395e-01
     9    8.082653994311e-16
    10    7.940120786758e-02
    11    3.563069223410e-01
    12   -1.464373202629e-01
    13    8.962799706396e-01
    14    1.327031431553e-16
    15   -7.940120786764e-02
    16    3.563069223410e-01
    17    5.528843584376e-03
    18   -1.005748762416e-02
    19   -1.186340231880e-15
    20    1.123493639161e-02
    21   -1.886759093395e-01
    22    5.528843584390e-03
    23   -1.005748762425e-02
    24    1.756541880926e-16
    25   -1.123493639162e-02
    26   -1.886759093395e-01
    27   -7.224325614087e-01
    28   -7.224325614089e-01
    29   -1.341854790764e-01
    30   -1.341854790764e-01
Sym=X
Ene= 0.682532
Spin=Alpha
Occup=0
     1   -3.564056282380e-15
     2   -1.081759622045e-14
     3    7.266874204630e-14
     4   -6.566717669193e-16
     5   -4.375881582340e-01
     6   -3.108861981935e-14
     7    3.005694124474e-02
     8   -2.141799190358e-01
     9   -1.200704390708e-17
    10   -6.447318521819e-01
    11    8.154668854319e-02
    12   -3.005694124473e-02
    13    2.141799190357e-01
    14    1.014067069667e-15
    15   -6.447318521820e-01
    16   -8.154668854331e-02
    17   -8.192304926792e-02
    18    4.915598730551e-01
    19    6.165686179060e-16
    20   -4.625766158254e-01
    21    2.264851045770e-02
    22    8.192304926793e-02
    23   -4.915598730551e-01
    24   -1.035600232378e-15
    25   -4.625766158254e-01
    26   -2.264851045773e-02
    27    6.326473056795e-01
    28   -6.326473056795e-01
    29    2.159785448159e-02
    30   -2.159785448159e-02

======= END OF MOLDEN-FORMATTED INPUT FILE =======


        *************************************************************
        *                                                           *
        *  Thank you very much for using Q-Chem.  Have a nice day.  *
        *                                                           *
        *************************************************************


