test uhf                                                                
FOpt      RHF                                                         STO-3G              
Number of atoms                            I                4
Info1-9                                    I   N=           9
          14          13           0           0           0         111
           2           1           2
Charge                                     I                0
Multiplicity                               I                1
Number of electrons                        I               10
Number of alpha electrons                  I                5
Number of beta electrons                   I                5
Number of basis functions                  I                8
Number of independent functions            I                8
Number of point charges in /Mol/           I                0
Number of translation vectors              I                0
Atomic numbers                             I   N=           4
           7           1           1           1
Nuclear charges                            R   N=           4
  7.00000000E+00  1.00000000E+00  1.00000000E+00  1.00000000E+00
Current cartesian coordinates              R   N=          12
 -3.37634394E-01 -4.19977383E-01  2.72117668E-01  3.07299585E-01  9.88261145E-01
  1.45882358E+00  1.28086282E+00 -1.10995429E+00 -5.71531597E-01 -1.25052801E+00
  5.41670529E-01 -1.15940966E+00
Force Field                                I                0
Int Atom Types                             I   N=           4
           0           0           0           0
MM charges                                 R   N=           4
  0.00000000E+00  0.00000000E+00  0.00000000E+00  0.00000000E+00
Integer atomic weights                     I   N=           4
          14           1           1           1
Real atomic weights                        R   N=           4
  1.40030740E+01  1.00782504E+00  1.00782504E+00  1.00782504E+00
Atom fragment info                         I   N=           4
           0           0           0           0
Atom residue num                           I   N=           4
           0           0           0           0
Nuclear spins                              I   N=           4
           2           1           1           1
Nuclear ZEff                               R   N=           4
 -4.55000000E+00 -1.00000000E+00 -1.00000000E+00 -1.00000000E+00
Nuclear ZNuc                               R   N=           4
  7.00000000E+00  1.00000000E+00  1.00000000E+00  1.00000000E+00
Nuclear QMom                               R   N=           4
  2.04400000E+00  0.00000000E+00  0.00000000E+00  0.00000000E+00
Nuclear GFac                               R   N=           4
  4.03761000E-01  2.79284600E+00  2.79284600E+00  2.79284600E+00
MicOpt                                     I   N=           4
          -1          -1          -1          -1
Number of contracted shells                I                5
Number of primitive shells                 I               15
Pure/Cartesian d shells                    I                0
Pure/Cartesian f shells                    I                0
Highest angular momentum                   I                1
Largest degree of contraction              I                3
Shell types                                I   N=           5
           0          -1           0           0           0
Number of primitives per shell             I   N=           5
           3           3           3           3           3
Shell to atom map                          I   N=           5
           1           1           2           3           4
Primitive exponents                        R   N=          15
  9.91061690E+01  1.80523124E+01  4.88566024E+00  3.78045588E+00  8.78496645E-01
  2.85714374E-01  3.42525091E+00  6.23913730E-01  1.68855404E-01  3.42525091E+00
  6.23913730E-01  1.68855404E-01  3.42525091E+00  6.23913730E-01  1.68855404E-01
Contraction coefficients                   R   N=          15
  1.54328967E-01  5.35328142E-01  4.44634542E-01 -9.99672292E-02  3.99512826E-01
  7.00115469E-01  1.54328967E-01  5.35328142E-01  4.44634542E-01  1.54328967E-01
  5.35328142E-01  4.44634542E-01  1.54328967E-01  5.35328142E-01  4.44634542E-01
P(S=P) Contraction coefficients            R   N=          15
  0.00000000E+00  0.00000000E+00  0.00000000E+00  1.55916275E-01  6.07683719E-01
  3.91957393E-01  0.00000000E+00  0.00000000E+00  0.00000000E+00  0.00000000E+00
  0.00000000E+00  0.00000000E+00  0.00000000E+00  0.00000000E+00  0.00000000E+00
Coordinates of each shell                  R   N=          15
 -3.37634394E-01 -4.19977383E-01  2.72117668E-01 -3.37634394E-01 -4.19977383E-01
  2.72117668E-01  3.07299585E-01  9.88261145E-01  1.45882358E+00  1.28086282E+00
 -1.10995429E+00 -5.71531597E-01 -1.25052801E+00  5.41670529E-01 -1.15940966E+00
Constraint Structure                       R   N=          12
 -2.82022728E-01 -3.51092218E-01  2.27655307E-01  2.86973811E-01  9.59602930E-01
  1.46287479E+00  1.25383329E+00 -1.12431146E+00 -5.53765346E-01 -1.25878437E+00
  5.15800748E-01 -1.13676476E+00
Num ILSW                                   I              100
ILSW                                       I   N=         100
           0           0           0           0           2           0
           0           0           0           0           0          -1
           0           0           0           0           2           0
           0           0           0           0           1           0
           1           1           0           0           0           0
           0           0      100000           0          -1           0
           0           0           0           0           0           0
           0           0           0           1           0           0
           0           0           1           0           0           0
           0           0           4          41           0           0
           0           0           0           0           0           0
           0           0           0           4           0           0
           0           0           0           0           0           0
           0           0           0           0           0           0
           0           0           0           0           0           0
           0           0           0           0           0           0
           0           0           0           0
Num RLSW                                   I               41
RLSW                                       R   N=          41
  1.00000000E+00  1.00000000E+00  1.00000000E+00  1.00000000E+00  1.00000000E+00
  0.00000000E+00  0.00000000E+00  1.00000000E+00  0.00000000E+00  0.00000000E+00
  0.00000000E+00  0.00000000E+00  1.00000000E+00  0.00000000E+00  0.00000000E+00
  0.00000000E+00  0.00000000E+00  1.00000000E+00  0.00000000E+00  0.00000000E+00
  0.00000000E+00  0.00000000E+00  1.00000000E+00  0.00000000E+00  0.00000000E+00
  0.00000000E+00  0.00000000E+00  1.00000000E+00  0.00000000E+00  0.00000000E+00
  0.00000000E+00  0.00000000E+00  1.00000000E+00  0.00000000E+00  0.00000000E+00
  0.00000000E+00  0.00000000E+00  0.00000000E+00  1.00000000E+00  1.00000000E+00
  0.00000000E+00
MxBond                                     I                3
NBond                                      I   N=           4
           3           1           1           1
IBond                                      I   N=          12
           2           3           4           1           0           0
           1           0           0           1           0           0
RBond                                      R   N=          12
  1.00000000E+00  1.00000000E+00  1.00000000E+00  1.00000000E+00  0.00000000E+00
  0.00000000E+00  1.00000000E+00  0.00000000E+00  0.00000000E+00  1.00000000E+00
  0.00000000E+00  0.00000000E+00
Virial Ratio                               R      2.006906928647791E+00
SCF Energy                                 R     -5.545541967468182E+01
Total Energy                               R     -5.545541967468182E+01
RMS Force                                  R      7.321068086732720E-05
RMS Density                                R      8.890229112268120E-09
External E-field                           R   N=          35
  0.00000000E+00  0.00000000E+00  0.00000000E+00  0.00000000E+00  0.00000000E+00
  0.00000000E+00  0.00000000E+00  0.00000000E+00  0.00000000E+00  0.00000000E+00
  0.00000000E+00  0.00000000E+00  0.00000000E+00  0.00000000E+00  0.00000000E+00
  0.00000000E+00  0.00000000E+00  0.00000000E+00  0.00000000E+00  0.00000000E+00
  0.00000000E+00  0.00000000E+00  0.00000000E+00  0.00000000E+00  0.00000000E+00
  0.00000000E+00  0.00000000E+00  0.00000000E+00  0.00000000E+00  0.00000000E+00
  0.00000000E+00  0.00000000E+00  0.00000000E+00  0.00000000E+00  0.00000000E+00
IOpCl                                      I                0
IROHF                                      I                0
Alpha Orbital Energies                     R   N=           8
 -1.53127770E+01 -1.08666064E+00 -5.61610462E-01 -5.61418798E-01 -3.58490022E-01
  6.24952583E-01  7.00070893E-01  7.00315122E-01
Alpha MO coefficients                      R   N=          64
  9.93451618E-01  3.13334798E-02  2.90401053E-03  3.61302064E-03 -2.34129886E-03
 -6.46492862E-03 -6.46493036E-03 -6.46490222E-03 -2.18931043E-01  7.39773534E-01
  7.89632842E-02  9.82367253E-02 -6.36570310E-02  1.59058415E-01  1.59058484E-01
  1.59040686E-01 -4.99718346E-05  2.25786825E-04 -4.54792637E-01  1.33863570E-01
 -3.56755264E-01 -2.50701866E-01 -2.50371452E-01  5.00965604E-01  7.75100302E-08
 -3.64799162E-07  1.87889614E-01 -4.04615423E-01 -3.91344100E-01 -4.33842953E-01
  4.34033812E-01 -1.90768545E-04  9.58757698E-02 -4.81828847E-01  4.86487864E-01
  6.05890248E-01 -3.92867849E-01  1.38112775E-01  1.38112594E-01  1.38253163E-01
 -1.79969011E-01  1.21136728E+00  3.41632025E-01  4.26638335E-01 -2.77081215E-01
 -7.00503905E-01 -7.00500586E-01 -7.02416020E-01  4.20540122E-07 -2.94420500E-06
 -3.27077314E-01  7.04487958E-01  6.81461660E-01 -8.44605684E-01  8.44889212E-01
 -2.78432116E-04 -2.20065395E-04  1.51673094E-03  7.92672673E-01 -2.32784242E-01
  6.21104640E-01 -4.88855924E-01 -4.88370860E-01  9.74524683E-01
Total SCF Density                          R   N=          36
  2.08813817E+00 -3.54053636E-01  1.56081151E+00  6.45252393E-02 -3.52001401E-01
  9.70105850E-01  8.03315313E-02 -4.38237778E-01  3.31245275E-01  1.11679919E+00
 -5.20763541E-02  2.84099014E-01 -2.14877265E-01 -2.67418782E-01  8.77654738E-01
 -5.59825111E-02  1.01722943E-01  2.24467934E-01  4.82525813E-01  3.89701943E-01
  5.90975294E-01 -5.59824778E-02  1.01722735E-01  5.50297290E-01 -2.19698582E-01
 -2.89810580E-01 -1.62234843E-01  5.90975399E-01 -5.60228333E-02  1.01900544E-01
 -2.96146449E-01  3.33009507E-01 -4.86143209E-01 -1.62154331E-01 -1.62154434E-01
  5.90832488E-01
Mulliken Charges                           R   N=           4
 -4.40637400E-01  1.46859576E-01  1.46859552E-01  1.46918271E-01
Optimization MaxStp                        I              100
Optimization Job offset                    I                0
Optimization Num results per geometry      I                2
Optimization Num geometry variables        I               12
Opt point       1 Results for each geome   R   N=           8
 -5.54518866E+01  0.00000000E+00 -5.54551230E+01  0.00000000E+00 -5.54553985E+01
  0.00000000E+00 -5.54554197E+01  0.00000000E+00
Opt point       1 Geometries               R   N=          48
 -2.82022728E-01 -3.51092218E-01  2.27655307E-01  2.86973811E-01  9.59602930E-01
  1.46287479E+00  1.25383329E+00 -1.12431146E+00 -5.53765346E-01 -1.25878437E+00
  5.15800748E-01 -1.13676476E+00 -3.16044410E-01 -3.94915496E-01  2.56546517E-01
  3.00941146E-01  9.92071706E-01  1.48434591E+00  1.28811922E+00 -1.13541903E+00
 -5.74280472E-01 -1.27301595E+00  5.38262819E-01 -1.16661196E+00 -3.43053535E-01
 -4.27371239E-01  2.77164097E-01  3.08033023E-01  9.88710982E-01  1.45289244E+00
  1.27916188E+00 -1.10426674E+00 -5.72402521E-01 -1.24414137E+00  5.42926994E-01
 -1.15765401E+00 -3.37634394E-01 -4.19977383E-01  2.72117668E-01  3.07299585E-01
  9.88261145E-01  1.45882358E+00  1.28086282E+00 -1.10995429E+00 -5.71531597E-01
 -1.25052801E+00  5.41670529E-01 -1.15940966E+00
Opt point       1 Gradient at each geome   R   N=          48
  2.43349949E-02  3.03309809E-02 -1.96717671E-02 -1.11161002E-02 -2.32144271E-02
 -1.73824467E-02 -2.61821922E-02  9.22157782E-03  1.39793596E-02  1.29632975E-02
 -1.63381316E-02  2.30748542E-02  3.61496192E-03  3.89016414E-03 -2.28838849E-03
 -9.45885053E-04  9.73355653E-04  4.74970213E-03  1.65707075E-03 -4.61938107E-03
 -6.50964748E-04 -4.32614762E-03 -2.44138726E-04 -1.81034890E-03 -1.31184909E-03
 -1.79985956E-03  1.23204244E-03  3.66555826E-04  3.52118664E-04 -8.32093009E-04
  9.64143809E-05  9.32412043E-04 -2.72480963E-04  8.48878882E-04  5.15328854E-04
 -1.27468465E-04 -1.25269426E-04  1.88695134E-05 -7.95387217E-05  1.20740149E-04
 -3.82826605E-05  2.54745019E-05  9.04954726E-05  2.65998871E-05  8.80639177E-05
 -8.59661959E-05 -7.18674004E-06 -3.39996979E-05
Optimization Number of geometries          I   N=           1
           4
ONIOM Charges                              I   N=          16
           0           0           0           0           0           0
           0           0           0           0           0           0
           0           0           0           0
ONIOM Multiplicities                       I   N=          16
           1           0           0           0           0           0
           0           0           0           0           0           0
           0           0           0           0
Atom Layers                                I   N=           4
           1           1           1           1
Atom Modifiers                             I   N=           4
           0           0           0           0
Force Field                                I                0
Int Atom Modified Types                    I   N=           4
           0           0           0           0
Link Atoms                                 I   N=           4
           0           0           0           0
Atom Modified MM Charges                   R   N=           4
  0.00000000E+00  0.00000000E+00  0.00000000E+00  0.00000000E+00
Link Distances                             R   N=          16
  0.00000000E+00  0.00000000E+00  0.00000000E+00  0.00000000E+00  0.00000000E+00
  0.00000000E+00  0.00000000E+00  0.00000000E+00  0.00000000E+00  0.00000000E+00
  0.00000000E+00  0.00000000E+00  0.00000000E+00  0.00000000E+00  0.00000000E+00
  0.00000000E+00
Cartesian Gradient                         R   N=          12
 -1.25269426E-04  1.88695134E-05 -7.95387217E-05  1.20740149E-04 -3.82826605E-05
  2.54745019E-05  9.04954726E-05  2.65998871E-05  8.80639177E-05 -8.59661959E-05
 -7.18674004E-06 -3.39996979E-05
Dipole Moment                              R   N=           3
  4.12483681E-01  5.13452089E-01 -3.32825817E-01
Quadrupole Moment                          R   N=           6
  3.75152864E-02 -2.66214275E-01  2.28698989E-01 -6.85189278E-01  4.44891628E-01
  5.52575957E-01
QEq coupling tensors                       R   N=          24
 -4.64767831E-02  8.50363669E-01  3.30215445E-01 -5.51685089E-01 -6.86493462E-01
 -2.83738662E-01  1.24928403E-01 -1.07134115E-01 -8.95020359E-02 -1.22414785E-01
 -2.59146837E-01 -3.54263675E-02 -1.91829154E-01  1.86653098E-01  1.15453713E-01
  1.81077488E-01 -1.02214240E-01  7.63754403E-02  5.43846574E-02  1.47125094E-01
  6.21528400E-02 -2.05818471E-01  1.78416641E-01 -1.16537497E-01
