filename
SP        R                             STO-3G
Number of atoms                            I               5
Charge                                     I               0
Multiplicity                               I               1
Number of electrons                        I               10
Number of alpha electrons                  I               5
Number of beta electrons                   I               5
Atomic numbers                             I   N=           5
           6           1           1           1           1
Current cartesian coordinates              R   N=          15
  2.94490124e-09  7.46074458e-10  7.13908205e-10  1.18160092e+00  1.18160088e+00
  1.18160088e+00 -1.18160069e+00 -1.18160088e+00  1.18160111e+00 -1.18160099e+00
  1.18160090e+00 -1.18160078e+00  1.18160069e+00 -1.18160088e+00 -1.18160111e+00
Nuclear charges                            R   N=           5
  6.00000000e+00  1.00000000e+00  1.00000000e+00  1.00000000e+00  1.00000000e+00
Number of basis functions                  I               9
Number of contracted shells                I               6
Number of primitive shells                 I               18
Highest angular momentum                   I               1
Largest degree of contraction              I               3
Shell types                                I   N=           6
           0          -1           0           0           0           0
Number of primitives per shell             I   N=           6
           3           3           3           3           3           3
Shell to atom map                          I   N=           6
           1           1           2           3           4           5
Primitive exponents                        R   N=          18
  7.16168370e+01  1.30450960e+01  3.53051220e+00  2.94124940e+00  6.83483100e-01
  2.22289900e-01  3.42525091e+00  6.23913730e-01  1.68855400e-01  3.42525091e+00
  6.23913730e-01  1.68855400e-01  3.42525091e+00  6.23913730e-01  1.68855400e-01
  3.42525091e+00  6.23913730e-01  1.68855400e-01
Contraction coefficients                   R   N=          18
  1.54328970e-01  5.35328140e-01  4.44634540e-01 -9.99672301e-02  3.99512830e-01
  7.00115471e-01  1.54328971e-01  5.35328142e-01  4.44634542e-01  1.54328971e-01
  5.35328142e-01  4.44634542e-01  1.54328971e-01  5.35328142e-01  4.44634542e-01
  1.54328971e-01  5.35328142e-01  4.44634542e-01
P(S=P) Contraction coefficients            R   N=          18
  0.00000000e+00  0.00000000e+00  0.00000000e+00  1.55916272e-01  6.07683728e-01
  3.91957395e-01  0.00000000e+00  0.00000000e+00  0.00000000e+00  0.00000000e+00
  0.00000000e+00  0.00000000e+00  0.00000000e+00  0.00000000e+00  0.00000000e+00
  0.00000000e+00  0.00000000e+00  0.00000000e+00
Alpha Orbital Energies                     R   N=           9
 -1.10296867e+01 -9.12094845e-01 -5.20495279e-01 -5.20495252e-01 -5.20495213e-01
  7.19221915e-01  7.19221930e-01  7.19221940e-01  7.61058911e-01
Total SCF Density                          R   N=          45
  2.06589557e+00 -2.01842292e-01  7.90672660e-01  6.22258695e-10 -9.29559480e-09
  6.54289682e-01  8.80625629e-11  3.22634491e-09 -1.54677133e-09  6.54289689e-01
 -9.87001364e-12  1.06376892e-08 -5.36521984e-10  8.97338347e-10  6.54289700e-01
 -9.38672936e-02  2.26105591e-01  3.44117442e-01  3.44117522e-01  3.44117585e-01
  6.08263314e-01 -9.38672948e-02  2.26105604e-01 -3.44117628e-01 -3.44117509e-01
  3.44117407e-01 -1.15678232e-01  6.08263312e-01 -9.38672925e-02  2.26105591e-01
 -3.44117413e-01  3.44117510e-01 -3.44117627e-01 -1.15678188e-01 -1.15678170e-01
  6.08263315e-01 -9.38672891e-02  2.26105567e-01  3.44117630e-01 -3.44117533e-01
 -3.44117398e-01 -1.15678150e-01 -1.15678181e-01 -1.15678209e-01  6.08263319e-01
Alpha MO coefficients                      R   N=          81
  9.91925487e-01  3.83556215e-02  1.34296318e-10  1.26524233e-10  2.46202965e-10
 -7.00709202e-03 -7.00709133e-03 -7.00709132e-03 -7.00709171e-03  2.21430832e-01
 -6.27586788e-01 -7.47844241e-09  2.92784052e-09  9.32544745e-09 -1.80567144e-01
 -1.80567145e-01 -1.80567147e-01 -1.80567150e-01  4.04585777e-09 -1.95150347e-08
  1.76349101e-07 -2.23725317e-08 -5.71965777e-01 -3.00820005e-01 -3.00820011e-01
  3.00820013e-01  3.00820021e-01 -3.20626591e-09  1.63406917e-08 -5.71965769e-01
 -5.45522425e-08 -1.75880086e-07 -3.00820082e-01  3.00820064e-01  3.00820002e-01
 -3.00820002e-01 -1.27592526e-09  6.02447592e-09 -5.59043890e-08  5.71965772e-01
 -2.15881150e-08  3.00819991e-01 -3.00820001e-01  3.00820061e-01 -3.00820056e-01
 -4.93808066e-09  3.18441250e-08  9.41834948e-06  1.10635792e+00  1.95329196e-06
 -6.14834619e-01  6.14832425e-01 -6.14821980e-01  6.14824122e-01  7.07383094e-09
 -4.56065893e-08  1.10635789e+00 -9.42827542e-06 -1.35235047e-05 -6.14815511e-01
  6.14830566e-01  6.14826026e-01 -6.14841006e-01  1.38296670e-08 -8.91796265e-08
 -1.35207569e-05  1.94277735e-06 -1.10635796e+00  6.14834764e-01  6.14821909e-01
 -6.14836851e-01 -6.14819676e-01  2.52319000e-01 -1.63281820e+00 -2.32314421e-08
  1.77125387e-08  4.88722197e-08  6.67723225e-01  6.67723217e-01  6.67723254e-01
  6.67723304e-01
