Jobname.Temp
SP        R                             STO-3G              
Number of atoms                            I               10
Charge                                     I                0
Multiplicity                               I                1
Number of electrons                        I               36
Number of alpha electrons                  I               18
Number of beta electrons                   I               18
Atomic numbers                             I   N=          10
           1           7           6           6           6           6
           1           1           1           1
Current cartesian coordinates              R   N=          30
  0.00000000E+00  0.00000000E+00  4.02378628E+00  0.00000000E+00  0.00000000E+00
  2.11400638E+00  0.00000000E+00  2.12502726E+00  6.30346495E-01  0.00000000E+00
 -2.12502726E+00  6.30346495E-01  0.00000000E+00  1.33869522E+00 -1.85912579E+00
  0.00000000E+00 -1.33869522E+00 -1.85912579E+00  0.00000000E+00  3.99274942E+00
  1.45602642E+00  0.00000000E+00 -3.99274942E+00  1.45602642E+00  0.00000000E+00
  2.56483456E+00 -3.49426423E+00  0.00000000E+00 -2.56483456E+00 -3.49426423E+00
Nuclear charges                            R   N=          10
  1.00000000E+00  7.00000000E+00  6.00000000E+00  6.00000000E+00  6.00000000E+00
  6.00000000E+00  1.00000000E+00  1.00000000E+00  1.00000000E+00  1.00000000E+00
Number of basis functions                  I               30
Number of contracted shells                I               15
Number of primitive shells                 I               45
Highest angular momentum                   I                1
Largest degree of contraction              I                3
Shell types                                I   N=          15
           0           0          -1           0          -1           0
          -1           0          -1           0          -1           0
           0           0           0
Number of primitives per shell             I   N=          15
           3           3           3           3           3           3
           3           3           3           3           3           3
           3           3           3
Shell to atom map                          I   N=          15
           1           2           2           3           3           4
           4           5           5           6           6           7
           8           9          10
Primitive exponents                        R   N=          45
  3.42525091E+00  6.23913730E-01  1.68855400E-01  9.91061690E+01  1.80523120E+01
  4.88566020E+00  3.78045590E+00  8.78496600E-01  2.85714400E-01  7.16168370E+01
  1.30450960E+01  3.53051220E+00  2.94124940E+00  6.83483100E-01  2.22289900E-01
  7.16168370E+01  1.30450960E+01  3.53051220E+00  2.94124940E+00  6.83483100E-01
  2.22289900E-01  7.16168370E+01  1.30450960E+01  3.53051220E+00  2.94124940E+00
  6.83483100E-01  2.22289900E-01  7.16168370E+01  1.30450960E+01  3.53051220E+00
  2.94124940E+00  6.83483100E-01  2.22289900E-01  3.42525091E+00  6.23913730E-01
  1.68855400E-01  3.42525091E+00  6.23913730E-01  1.68855400E-01  3.42525091E+00
  6.23913730E-01  1.68855400E-01  3.42525091E+00  6.23913730E-01  1.68855400E-01
Contraction coefficients                   R   N=          45
  1.54328971E-01  5.35328142E-01  4.44634542E-01  1.54328970E-01  5.35328141E-01
  4.44634541E-01 -9.99672284E-02  3.99512824E-01  7.00115459E-01  1.54328970E-01
  5.35328140E-01  4.44634540E-01 -9.99672301E-02  3.99512830E-01  7.00115471E-01
  1.54328970E-01  5.35328140E-01  4.44634540E-01 -9.99672301E-02  3.99512830E-01
  7.00115471E-01  1.54328970E-01  5.35328140E-01  4.44634540E-01 -9.99672301E-02
  3.99512830E-01  7.00115471E-01  1.54328970E-01  5.35328140E-01  4.44634540E-01
 -9.99672301E-02  3.99512830E-01  7.00115471E-01  1.54328971E-01  5.35328142E-01
  4.44634542E-01  1.54328971E-01  5.35328142E-01  4.44634542E-01  1.54328971E-01
  5.35328142E-01  4.44634542E-01  1.54328971E-01  5.35328142E-01  4.44634542E-01
P(S=P) Contraction coefficients            R   N=          45
  0.00000000E+00  0.00000000E+00  0.00000000E+00  0.00000000E+00  0.00000000E+00
  0.00000000E+00  1.55916269E-01  6.07683714E-01  3.91957386E-01  0.00000000E+00
  0.00000000E+00  0.00000000E+00  1.55916272E-01  6.07683728E-01  3.91957395E-01
  0.00000000E+00  0.00000000E+00  0.00000000E+00  1.55916272E-01  6.07683728E-01
  3.91957395E-01  0.00000000E+00  0.00000000E+00  0.00000000E+00  1.55916272E-01
  6.07683728E-01  3.91957395E-01  0.00000000E+00  0.00000000E+00  0.00000000E+00
  1.55916272E-01  6.07683728E-01  3.91957395E-01  0.00000000E+00  0.00000000E+00
  0.00000000E+00  0.00000000E+00  0.00000000E+00  0.00000000E+00  0.00000000E+00
  0.00000000E+00  0.00000000E+00  0.00000000E+00  0.00000000E+00  0.00000000E+00
Coordinates of each shell                  R   N=          45
  0.00000000E+00  0.00000000E+00  4.02378628E+00  0.00000000E+00  0.00000000E+00
  2.11400638E+00  0.00000000E+00  0.00000000E+00  2.11400638E+00  0.00000000E+00
  2.12502726E+00  6.30346495E-01  0.00000000E+00  2.12502726E+00  6.30346495E-01
  0.00000000E+00 -2.12502726E+00  6.30346495E-01  0.00000000E+00 -2.12502726E+00
  6.30346495E-01  0.00000000E+00  1.33869522E+00 -1.85912579E+00  0.00000000E+00
  1.33869522E+00 -1.85912579E+00  0.00000000E+00 -1.33869522E+00 -1.85912579E+00
  0.00000000E+00 -1.33869522E+00 -1.85912579E+00  0.00000000E+00  3.99274942E+00
  1.45602642E+00  0.00000000E+00 -3.99274942E+00  1.45602642E+00  0.00000000E+00
  2.56483456E+00 -3.49426423E+00  0.00000000E+00 -2.56483456E+00 -3.49426423E+00
Overlap Matrix                             R   N=         465
  1.00000000E+00  5.86066727E-02  1.00000000E+00  4.95762589E-01  2.35037765E-01
  1.00000000E+00  0.00000000E+00  0.00000000E+00  0.00000000E+00  1.00000000E+00
  0.00000000E+00  0.00000000E+00  0.00000000E+00  0.00000000E+00  1.00000000E+00
  4.40184583E-01  0.00000000E+00  3.94407983E-17  0.00000000E+00  0.00000000E+00
  1.00000000E+00  5.95138880E-03  2.03975482E-07  3.12152775E-02  0.00000000E+00
  4.29214067E-02 -2.99670364E-02  1.00000000E+00  1.04047252E-01  3.12778610E-02
  3.33818367E-01  0.00000000E+00  2.76466419E-01 -1.93024411E-01  2.48362390E-01
  1.00000000E+00  0.00000000E+00  0.00000000E+00  0.00000000E+00  1.89299144E-01
  0.00000000E+00  0.00000000E+00  0.00000000E+00  0.00000000E+00  1.00000000E+00
 -7.06194008E-02 -4.25727885E-02 -3.19927389E-01  0.00000000E+00 -1.53658559E-01
  2.39447557E-01 -8.67327690E-17  5.47747084E-17  0.00000000E+00  1.00000000E+00
  1.12771581E-01  2.97236368E-02  2.23368162E-01  0.00000000E+00  2.39447557E-01
  2.21207074E-02  4.84943275E-18 -1.28713100E-16  0.00000000E+00  0.00000000E+00
  1.00000000E+00  5.95138880E-03  2.03975482E-07  3.12152775E-02  0.00000000E+00
 -4.29214067E-02 -2.99670364E-02  2.80671502E-15  3.32848022E-03  0.00000000E+00
 -7.15338474E-03  1.86267192E-19  1.00000000E+00  1.04047252E-01  3.12778610E-02
  3.33818367E-01  0.00000000E+00 -2.76466419E-01 -1.93024411E-01  3.32848022E-03
  8.65248603E-02  0.00000000E+00 -1.21910442E-01 -3.73933568E-18  2.48362390E-01
  1.00000000E+00  0.00000000E+00  0.00000000E+00  0.00000000E+00  1.89299144E-01
  0.00000000E+00  0.00000000E+00  0.00000000E+00  0.00000000E+00  3.77745698E-02
  0.00000000E+00  0.00000000E+00  0.00000000E+00  0.00000000E+00  1.00000000E+00
  7.06194008E-02  4.25727885E-02  3.19927389E-01  0.00000000E+00 -1.53658559E-01
 -2.39447557E-01  7.15338474E-03  1.21910442E-01  0.00000000E+00 -1.54613705E-01
 -7.26566809E-18  8.67327690E-17 -5.47747084E-17  0.00000000E+00  1.00000000E+00
  1.12771581E-01  2.97236368E-02  2.23368162E-01  0.00000000E+00 -2.39447557E-01
  2.21207074E-02  1.86267192E-19 -3.73933568E-18  0.00000000E+00  7.26566809E-18
  3.77745698E-02  4.84943275E-18 -1.28713100E-16  0.00000000E+00  0.00000000E+00
  1.00000000E+00  2.14313950E-04  4.38196345E-17  1.60265704E-03  0.00000000E+00
  1.20949175E-03 -3.58966740E-03  1.17901421E-06  3.92062111E-02  0.00000000E+00
 -1.95752263E-02 -6.19737977E-02  2.22378107E-15  3.23648739E-03  0.00000000E+00
  5.66759763E-03 -4.07345776E-03  1.00000000E+00  1.10202431E-02  2.80978925E-03
  6.90911198E-02  0.00000000E+00  3.00354742E-02 -8.91427022E-02  3.92062111E-02
  3.73956639E-01  0.00000000E+00 -1.18839002E-01 -3.76235971E-01  3.23648739E-03
  8.51130743E-02  0.00000000E+00  9.75914987E-02 -7.01416851E-02  2.48362390E-01
  1.00000000E+00  0.00000000E+00  0.00000000E+00  0.00000000E+00  2.90875500E-02
  0.00000000E+00  0.00000000E+00  0.00000000E+00  0.00000000E+00  2.20263432E-01
  0.00000000E+00  0.00000000E+00  0.00000000E+00  0.00000000E+00  3.70792642E-02
  0.00000000E+00  0.00000000E+00  0.00000000E+00  0.00000000E+00  1.00000000E+00
 -3.90106645E-03 -1.92605740E-03 -3.35858954E-02  0.00000000E+00  1.28745578E-02
  4.81187651E-02  1.95752263E-02  1.18839002E-01  0.00000000E+00  1.70487212E-01
 -1.57588032E-01 -5.66759763E-03 -9.75914987E-02  0.00000000E+00 -8.81553712E-02
  9.00095652E-02  2.78777624E-17  9.99295006E-18  0.00000000E+00  1.00000000E+00
  1.71432830E-02  5.71637257E-03  9.96800467E-02  0.00000000E+00  4.81187651E-02
 -1.13724803E-01  6.19737977E-02  3.76235971E-01  0.00000000E+00 -1.57588032E-01
 -2.78649258E-01  4.07345776E-03  7.01416851E-02  0.00000000E+00  9.00095652E-02
 -2.76130774E-02 -4.06926425E-17  1.23510636E-16  0.00000000E+00 -7.12361375E-33
  1.00000000E+00  2.14313950E-04  4.38196345E-17  1.60265704E-03  0.00000000E+00
 -1.20949175E-03 -3.58966740E-03  2.22378107E-15  3.23648739E-03  0.00000000E+00
 -5.66759763E-03 -4.07345776E-03  1.17901421E-06  3.92062111E-02  0.00000000E+00
  1.95752263E-02 -6.19737977E-02  6.32332654E-07  3.60228173E-02  0.00000000E+00
 -5.97521666E-02 -4.35464520E-18  1.00000000E+00  1.10202431E-02  2.80978925E-03
  6.90911198E-02  0.00000000E+00 -3.00354742E-02 -8.91427022E-02  3.23648739E-03
  8.51130743E-02  0.00000000E+00 -9.75914987E-02 -7.01416851E-02  3.92062111E-02
  3.73956639E-01  0.00000000E+00  1.18839002E-01 -3.76235971E-01  3.60228173E-02
  3.56285220E-01  0.00000000E+00 -3.81781932E-01  3.91152812E-17  2.48362390E-01
  1.00000000E+00  0.00000000E+00  0.00000000E+00  0.00000000E+00  2.90875500E-02
  0.00000000E+00  0.00000000E+00  0.00000000E+00  0.00000000E+00  3.70792642E-02
  0.00000000E+00  0.00000000E+00  0.00000000E+00  0.00000000E+00  2.20263432E-01
  0.00000000E+00  0.00000000E+00  0.00000000E+00  0.00000000E+00  2.06610743E-01
  0.00000000E+00  0.00000000E+00  0.00000000E+00  0.00000000E+00  1.00000000E+00
  3.90106645E-03  1.92605740E-03  3.35858954E-02  0.00000000E+00  1.28745578E-02
 -4.81187651E-02  5.66759763E-03  9.75914987E-02  0.00000000E+00 -8.81553712E-02
 -9.00095652E-02 -1.95752263E-02 -1.18839002E-01  0.00000000E+00  1.70487212E-01
  1.57588032E-01  5.97521666E-02  3.81781932E-01  0.00000000E+00 -3.27162287E-01
  4.32050437E-17 -2.78777624E-17 -9.99295006E-18  0.00000000E+00  1.00000000E+00
  1.71432830E-02  5.71637257E-03  9.96800467E-02  0.00000000E+00 -4.81187651E-02
 -1.13724803E-01  4.07345776E-03  7.01416851E-02  0.00000000E+00 -9.00095652E-02
 -2.76130774E-02  6.19737977E-02  3.76235971E-01  0.00000000E+00  1.57588032E-01
 -2.78649258E-01 -4.35464520E-18  3.91152812E-17  0.00000000E+00 -4.32050437E-17
  2.06610743E-01 -4.06926425E-17  1.23510636E-16  0.00000000E+00  7.12361375E-33
  1.00000000E+00  4.84068281E-02  4.35226753E-03  7.68544034E-02  0.00000000E+00
  9.32073812E-02 -1.53599895E-02  6.36533251E-02  4.96159564E-01  0.00000000E+00
  4.30300030E-01  1.90226419E-01  1.62279894E-04  9.23016429E-03  0.00000000E+00
  1.47849485E-02  1.99543655E-03  4.28054222E-03  8.21471908E-02  0.00000000E+00
  6.76649912E-02  8.45196549E-02  1.31205372E-04  8.06665273E-03  0.00000000E+00
  1.11801373E-02  6.95193507E-03  1.00000000E+00  4.84068281E-02  4.35226753E-03
  7.68544034E-02  0.00000000E+00 -9.32073812E-02 -1.53599895E-02  1.62279894E-04
  9.23016429E-03  0.00000000E+00 -1.47849485E-02  1.99543655E-03  6.36533251E-02
  4.96159564E-01  0.00000000E+00 -4.30300030E-01  1.90226419E-01  1.31205372E-04
  8.06665273E-03  0.00000000E+00 -1.11801373E-02  6.95193507E-03  4.28054222E-03
  8.21471908E-02  0.00000000E+00 -6.76649912E-02  8.45196549E-02  9.82480519E-04
  1.00000000E+00  1.04218701E-03  1.22945585E-04  5.90825747E-03  0.00000000E+00
  3.80737231E-03 -8.32520529E-03  4.90416936E-03  9.05269062E-02  0.00000000E+00
  1.24977367E-02 -1.17206556E-01  1.40200895E-04  8.41240932E-03  0.00000000E+00
  1.02788172E-02 -9.03995072E-03  6.35194443E-02  4.95638440E-01  0.00000000E+00
  2.82068306E-01 -3.76156863E-01  4.36778808E-03  8.33364291E-02  0.00000000E+00
  1.01127124E-01 -4.23608524E-02  3.19875262E-02  7.07371844E-04  1.00000000E+00
  1.04218701E-03  1.22945585E-04  5.90825747E-03  0.00000000E+00 -3.80737231E-03
 -8.32520529E-03  1.40200895E-04  8.41240932E-03  0.00000000E+00 -1.02788172E-02
 -9.03995072E-03  4.90416936E-03  9.05269062E-02  0.00000000E+00 -1.24977367E-02
 -1.17206556E-01  4.36778808E-03  8.33364291E-02  0.00000000E+00 -1.01127124E-01
 -4.23608524E-02  6.35194443E-02  4.95638440E-01  0.00000000E+00 -2.82068306E-01
 -3.76156863E-01  7.07371844E-04  3.19875262E-02  3.27494269E-02  1.00000000E+00
Core Hamiltonian Matrix                    R   N=         465
 -9.68240660E+00 -1.90728755E+00 -3.30297082E+01 -6.34141914E+00 -7.63780341E+00
 -1.50675719E+01  0.00000000E+00  0.00000000E+00  0.00000000E+00 -1.33379088E+01
  0.00000000E+00  0.00000000E+00  0.00000000E+00  0.00000000E+00 -1.39097928E+01
 -4.76513375E+00  8.47670736E-02  1.08870147E+00  0.00000000E+00  0.00000000E+00
 -1.39028583E+01 -1.58502680E-01 -1.36693508E-05 -8.34401205E-01  0.00000000E+00
 -1.14450133E+00  8.02234969E-01 -2.68817634E+01 -1.37649277E+00 -1.02561947E+00
 -4.97620411E+00  0.00000000E+00 -3.92139336E+00  3.07503727E+00 -6.54321949E+00
 -1.37873174E+01  0.00000000E+00  0.00000000E+00  0.00000000E+00 -2.45495784E+00
  0.00000000E+00  0.00000000E+00  0.00000000E+00  0.00000000E+00 -1.22623145E+01
  1.03496458E+00  1.39647951E+00  4.95905007E+00  0.00000000E+00  2.33822115E+00
 -3.74317536E+00  1.12988799E-01  1.30306891E+00  0.00000000E+00 -1.29891409E+01
 -1.37647096E+00 -9.72726179E-01 -3.15151438E+00  0.00000000E+00 -3.16930736E+00
 -1.42618876E-01  2.56302104E-02  3.02222755E-01  0.00000000E+00  3.02190901E-02
 -1.29564086E+01 -1.58502680E-01 -1.36693508E-05 -8.34401205E-01  0.00000000E+00
  1.14450133E+00  8.02234969E-01  0.00000000E+00 -8.97227443E-02  0.00000000E+00
  1.92083399E-01  5.68956239E-05 -2.68817634E+01 -1.37649277E+00 -1.02561947E+00
 -4.97620411E+00  0.00000000E+00  3.92139336E+00  3.07503727E+00 -8.97227443E-02
 -1.31089696E+00  0.00000000E+00  1.84417827E+00 -9.97192342E-03 -6.54321949E+00
 -1.37873174E+01  0.00000000E+00  0.00000000E+00  0.00000000E+00 -2.45495784E+00
  0.00000000E+00  0.00000000E+00  0.00000000E+00  0.00000000E+00 -4.87058433E-01
  0.00000000E+00  0.00000000E+00  0.00000000E+00  0.00000000E+00 -1.22623145E+01
 -1.03496458E+00 -1.39647951E+00 -4.95905007E+00  0.00000000E+00  2.33822115E+00
  3.74317536E+00 -1.92083399E-01 -1.84417827E+00  0.00000000E+00  2.35124926E+00
 -1.61305417E-02 -1.12988799E-01 -1.30306891E+00  0.00000000E+00 -1.29891409E+01
 -1.37647096E+00 -9.72726179E-01 -3.15151438E+00  0.00000000E+00  3.16930736E+00
 -1.42618876E-01  5.68956239E-05 -9.97192342E-03  0.00000000E+00  1.61305417E-02
 -5.61686049E-01  2.56302104E-02  3.02222755E-01  0.00000000E+00 -3.02190901E-02
 -1.29564086E+01 -5.74918098E-03  0.00000000E+00 -4.31569891E-02  0.00000000E+00
 -3.23613178E-02  9.61620633E-02 -6.26835910E-05 -1.03644627E+00  0.00000000E+00
  5.20213010E-01  1.63608654E+00  0.00000000E+00 -8.64635642E-02  0.00000000E+00
 -1.50893393E-01  1.08336093E-01 -2.66631460E+01 -1.65345793E-01 -9.27942273E-02
 -1.06223336E+00  0.00000000E+00 -4.56416522E-01  1.35567890E+00 -1.04422278E+00
 -5.29003940E+00  0.00000000E+00  2.01726944E+00  5.21892366E+00 -8.71895297E-02
 -1.26699552E+00  0.00000000E+00 -1.45317879E+00  1.02905605E+00 -6.48892315E+00
 -1.35755573E+01  0.00000000E+00  0.00000000E+00  0.00000000E+00 -3.84662332E-01
  0.00000000E+00  0.00000000E+00  0.00000000E+00  0.00000000E+00 -2.71947625E+00
  0.00000000E+00  0.00000000E+00  0.00000000E+00  0.00000000E+00 -4.72352120E-01
  0.00000000E+00  0.00000000E+00  0.00000000E+00  0.00000000E+00 -1.20816267E+01
  6.10234418E-02  6.34831542E-02  5.13681865E-01  0.00000000E+00 -1.94121550E-01
 -7.24957023E-01 -5.17455960E-01 -1.36640174E+00  0.00000000E+00 -2.18298418E+00
  1.82091765E+00  1.52042764E-01  1.44420656E+00  0.00000000E+00  1.31469133E+00
 -1.31937460E+00  6.23452422E-02  7.27550223E-01  0.00000000E+00 -1.27200242E+01
 -2.55474204E-01 -1.88252854E-01 -1.53160177E+00  0.00000000E+00 -7.29151988E-01
  1.73308222E+00 -1.65047475E+00 -5.46528298E+00  0.00000000E+00  2.54914513E+00
  3.99571360E+00 -1.09412041E-01 -1.05259580E+00  0.00000000E+00 -1.35065339E+00
  4.13675203E-01 -9.19489692E-02 -1.06517295E+00  0.00000000E+00  1.79319421E-02
 -1.27720885E+01 -5.74918098E-03  0.00000000E+00 -4.31569891E-02  0.00000000E+00
  3.23613178E-02  9.61620633E-02  0.00000000E+00 -8.64635642E-02  0.00000000E+00
  1.50893393E-01  1.08336093E-01 -6.26835910E-05 -1.03644627E+00  0.00000000E+00
 -5.20213010E-01  1.63608654E+00 -3.47250752E-05 -9.51980786E-01  0.00000000E+00
  1.57794928E+00 -3.07926120E-03 -2.66631460E+01 -1.65345793E-01 -9.27942273E-02
 -1.06223336E+00  0.00000000E+00  4.56416522E-01  1.35567890E+00 -8.71895297E-02
 -1.26699552E+00  0.00000000E+00  1.45317879E+00  1.02905605E+00 -1.04422278E+00
 -5.29003940E+00  0.00000000E+00 -2.01726944E+00  5.21892366E+00 -9.51980786E-01
 -4.99863474E+00  0.00000000E+00  5.36967515E+00 -3.27944600E-01 -6.48892315E+00
 -1.35755573E+01  0.00000000E+00  0.00000000E+00  0.00000000E+00 -3.84662332E-01
  0.00000000E+00  0.00000000E+00  0.00000000E+00  0.00000000E+00 -4.72352120E-01
  0.00000000E+00  0.00000000E+00  0.00000000E+00  0.00000000E+00 -2.71947625E+00
  0.00000000E+00  0.00000000E+00  0.00000000E+00  0.00000000E+00 -2.53147528E+00
  0.00000000E+00  0.00000000E+00  0.00000000E+00  0.00000000E+00 -1.20816267E+01
 -6.10234418E-02 -6.34831542E-02 -5.13681865E-01  0.00000000E+00 -1.94121550E-01
  7.24957023E-01 -1.52042764E-01 -1.44420656E+00  0.00000000E+00  1.31469133E+00
  1.31937460E+00  5.17455960E-01  1.36640174E+00  0.00000000E+00 -2.18298418E+00
 -1.82091765E+00 -1.57794928E+00 -5.36967515E+00  0.00000000E+00  4.61591281E+00
 -3.48322548E-01 -6.23452422E-02 -7.27550223E-01  0.00000000E+00 -1.27200242E+01
 -2.55474204E-01 -1.88252854E-01 -1.53160177E+00  0.00000000E+00  7.29151988E-01
  1.73308222E+00 -1.09412041E-01 -1.05259580E+00  0.00000000E+00  1.35065339E+00
  4.13675203E-01 -1.65047475E+00 -5.46528298E+00  0.00000000E+00 -2.54914513E+00
  3.99571360E+00 -3.07926120E-03 -3.27944600E-01  0.00000000E+00  3.48322548E-01
 -2.68155401E+00 -9.19489692E-02 -1.06517295E+00  0.00000000E+00 -1.79319421E-02
 -1.27720885E+01 -5.29400031E-01 -1.42610097E-01 -1.04299610E+00  0.00000000E+00
 -1.18829301E+00  2.97899836E-01 -1.67409943E+00 -5.75762274E+00  0.00000000E+00
 -4.23466830E+00 -1.95739474E+00 -4.39567319E-03 -1.38470994E-01  0.00000000E+00
 -2.19386542E-01 -2.83432174E-02 -1.13080738E-01 -1.05292388E+00  0.00000000E+00
 -7.54889325E-01 -1.11849238E+00 -3.52456580E-03 -1.19567907E-01  0.00000000E+00
 -1.62860007E-01 -1.04058429E-01 -9.06059861E+00 -5.29400031E-01 -1.42610097E-01
 -1.04299610E+00  0.00000000E+00  1.18829301E+00  2.97899836E-01 -4.39567319E-03
 -1.38470994E-01  0.00000000E+00  2.19386542E-01 -2.83432174E-02 -1.67409943E+00
 -5.75762274E+00  0.00000000E+00  4.23466830E+00 -1.95739474E+00 -3.52456580E-03
 -1.19567907E-01  0.00000000E+00  1.62860007E-01 -1.04058429E-01 -1.13080738E-01
 -1.05292388E+00  0.00000000E+00  7.54889325E-01 -1.11849238E+00 -1.43694271E-02
 -9.06059861E+00 -1.51984575E-02 -4.07569002E-03 -9.07344319E-02  0.00000000E+00
 -5.71785141E-02  1.26733484E-01 -1.30404538E-01 -1.14578677E+00  0.00000000E+00
 -3.35443176E-02  1.44042670E+00 -3.79599081E-03 -1.23698970E-01  0.00000000E+00
 -1.50855339E-01  1.29307825E-01 -1.65704682E+00 -5.66844486E+00  0.00000000E+00
 -2.77019660E+00  3.67016177E+00 -1.15279714E-01 -1.05201609E+00  0.00000000E+00
 -1.27464038E+00  4.15153248E-01 -3.44567071E-01 -1.02907927E-02 -8.93310831E+00
 -1.51984575E-02 -4.07569002E-03 -9.07344319E-02  0.00000000E+00  5.71785141E-02
  1.26733484E-01 -3.79599081E-03 -1.23698970E-01  0.00000000E+00  1.50855339E-01
  1.29307825E-01 -1.30404538E-01 -1.14578677E+00  0.00000000E+00  3.35443176E-02
  1.44042670E+00 -1.15279714E-01 -1.05201609E+00  0.00000000E+00  1.27464038E+00
  4.15153248E-01 -1.65704682E+00 -5.66844486E+00  0.00000000E+00  2.77019660E+00
  3.67016177E+00 -1.02907927E-02 -3.44567071E-01 -3.48297995E-01 -8.93310831E+00
Number of independent functions            I               30
Alpha MO coefficients                      R   N=         900
 -6.43302924E-03  9.93234079E-01  3.29472273E-02 -2.01329290E-16 -1.57729780E-16
 -1.08727169E-03  4.82521106E-04 -6.11453036E-03 -8.23844925E-17  3.92413081E-03
 -2.68062978E-03  4.82521106E-04 -6.11453036E-03  2.93323763E-16 -3.92413081E-03
 -2.68062978E-03  3.78711048E-06  4.03033224E-04  6.90004209E-17 -4.47950358E-05
  2.62913916E-04  3.78711049E-06  4.03033224E-04 -1.51458678E-16  4.47950358E-05
  2.62913916E-04  2.41721138E-04  2.41721138E-04 -4.12471347E-05 -4.12471347E-05
 -2.53652231E-14  3.61875068E-14 -5.79059146E-13 -1.33654376E-16  4.53714015E-03
  1.94507892E-13 -7.01571640E-01 -2.51577403E-02 -1.00547184E-16  1.69051610E-03
  3.67122644E-04  7.01571640E-01  2.51577403E-02  2.22803447E-17  1.69051611E-03
 -3.67122644E-04 -4.03720687E-03  4.96651647E-03  1.80708799E-16  1.04632691E-03
  2.78774385E-03  4.03720687E-03 -4.96651647E-03  3.12255808E-16  1.04632691E-03
 -2.78774385E-03  4.56523911E-03 -4.56523911E-03 -1.42718181E-04  1.42718181E-04
  3.62850897E-04 -5.38387755E-04  8.61533062E-03 -2.76989842E-16  3.05177421E-13
 -2.89323068E-03 -7.01721658E-01 -2.48092649E-02  6.69117588E-17  9.95636542E-04
  1.91439843E-04 -7.01721658E-01 -2.48092649E-02 -1.19427180E-17 -9.95636542E-04
  1.91439843E-04 -2.42380063E-03  4.82834345E-03 -5.35437333E-16  8.87507705E-04
  3.13609281E-03 -2.42380063E-03  4.82834345E-03  2.54885263E-16 -8.87507704E-04
  3.13609281E-03  4.76032662E-03  4.76032662E-03  4.01901906E-05  4.01901906E-05
 -1.28587463E-04  4.13483178E-05  4.08215038E-04  2.11504044E-16  1.16436842E-14
  1.29534150E-04 -1.83139841E-03 -5.26404865E-03 -2.03870677E-17  1.12735092E-03
  3.11489423E-03 -1.83139841E-03 -5.26404865E-03 -1.60498233E-16 -1.12735092E-03
  3.11489423E-03  7.01836747E-01  2.09602195E-02  2.54792493E-16  2.53938918E-03
  1.45204349E-03  7.01836746E-01  2.09602195E-02  2.96226298E-17 -2.53938918E-03
  1.45204349E-03  2.05746794E-05  2.05746793E-05 -4.62177091E-03 -4.62177090E-03
  8.14332465E-15 -1.23582329E-15 -2.58259753E-14  1.19915780E-16  1.83190654E-04
 -9.13669085E-15 -3.61380247E-03 -5.51150989E-03  1.20508258E-16  8.14933647E-04
  3.17237966E-03  3.61380247E-03  5.51150989E-03 -1.88758570E-16  8.14933647E-04
 -3.17237966E-03  7.01247540E-01  3.07593737E-02  1.69916876E-16 -3.83023453E-03
  1.37592642E-03 -7.01247540E-01 -3.07593737E-02 -3.83779654E-17 -3.83023453E-03
 -1.37592642E-03  1.84548290E-04 -1.84548290E-04 -4.76355663E-03  4.76355663E-03
 -9.87227083E-02  1.91980571E-01 -6.20919845E-01  7.27868211E-16  1.07405441E-15
  6.45353701E-02  9.60305337E-02 -2.16218583E-01 -9.16100402E-18  8.65504006E-02
 -2.58799110E-02  9.60305337E-02 -2.16218583E-01 -7.01902907E-16 -8.65504006E-02
 -2.58799110E-02  4.99675351E-02 -1.12530932E-01  1.18991733E-16  1.72383588E-02
 -4.50005092E-02  4.99675351E-02 -1.12530932E-01 -3.64081666E-16 -1.72383588E-02
 -4.50005092E-02 -3.32679681E-02 -3.32679681E-02 -1.41659696E-02 -1.41659696E-02
 -1.52474976E-01  1.06625049E-01 -3.86426945E-01  1.91650777E-15 -5.06832248E-15
 -1.27740858E-01 -4.23886032E-02  1.12037452E-01 -5.94821673E-16 -6.96622093E-04
 -1.40379868E-01 -4.23886032E-02  1.12037452E-01 -3.47237183E-15  6.96622093E-04
 -1.40379868E-01 -1.46706154E-01  3.83218597E-01  2.19318684E-15 -7.19253196E-02
  4.28410360E-02 -1.46706154E-01  3.83218597E-01  8.42606668E-17  7.19253196E-02
  4.28410360E-02  1.54930240E-02  1.54930240E-02  8.83783298E-02  8.83783298E-02
 -5.27414984E-15  2.85135345E-15 -1.01300878E-14  3.59232659E-15  2.58757568E-01
 -7.11720794E-15 -1.53701535E-01  4.30098966E-01 -1.25736239E-15 -1.05768165E-02
 -1.48467254E-02  1.53701535E-01 -4.30098966E-01 -8.30711187E-15 -1.05768165E-02
  1.48467254E-02 -7.92143193E-02  2.16997014E-01  5.20233090E-15  8.12968962E-02
  8.21457504E-02  7.92143193E-02 -2.16997014E-01  4.63305215E-16  8.12968962E-02
 -8.21457504E-02  1.36088025E-01 -1.36088025E-01  6.33246216E-02 -6.33246216E-02
  3.09730535E-01 -4.08311976E-02  1.60680263E-01 -2.69541242E-15  2.10354035E-14
  3.93761943E-01  8.45631440E-02 -2.53969493E-01 -1.43411653E-15  8.32585529E-03
 -7.46710104E-03  8.45631440E-02 -2.53969493E-01 -9.36458382E-16 -8.32585529E-03
 -7.46710104E-03 -7.85554216E-02  2.42253288E-01 -1.14765020E-15 -7.58250388E-02
 -1.77611778E-01 -7.85554216E-02  2.42253288E-01  3.17003423E-16  7.58250388E-02
 -1.77611778E-01 -1.04232034E-01 -1.04232034E-01  1.53519809E-01  1.53519809E-01
 -1.61558641E-14  2.89187550E-15 -1.11064580E-14  4.38621721E-15  3.25359542E-01
 -1.84587426E-14 -3.52357291E-02  1.08412205E-01  1.45054825E-15 -4.32407532E-03
  2.52986861E-01  3.52357291E-02 -1.08412205E-01 -4.39071703E-15 -4.32407532E-03
 -2.52986861E-01  1.11900169E-01 -3.33930897E-01  2.53924947E-15 -1.49063486E-01
  3.06918885E-02 -1.11900169E-01  3.33930897E-01 -7.04654860E-16 -1.49063486E-01
 -3.06918885E-02  1.04427013E-01 -1.04427013E-01 -2.12561486E-01  2.12561486E-01
  1.18637065E-01  3.53492532E-02 -1.38772990E-01  2.36708177E-15 -7.62060586E-15
  2.42217798E-01 -6.85634762E-02  2.26672551E-01  5.38386806E-16  2.90592539E-01
  3.47267189E-02 -6.85634762E-02  2.26672551E-01 -1.86951531E-15 -2.90592539E-01
  3.47267189E-02 -4.33571840E-04  1.40031671E-02  1.12674610E-15  1.52989239E-01
 -3.75042598E-02 -4.33571840E-04  1.40031671E-02 -1.02148943E-15 -1.52989239E-01
 -3.75042598E-02  2.84990287E-01  2.84990287E-01  7.98345397E-02  7.98345397E-02
  3.02305419E-01  3.46237685E-02 -1.58523145E-01 -4.08134489E-15  7.11426183E-14
  3.90319421E-01 -6.47154535E-03  1.20998258E-02 -3.76085485E-15  4.21464128E-02
 -2.30319466E-01 -6.47154535E-03  1.20998258E-02 -1.67465968E-14 -4.21464128E-02
 -2.30319466E-01 -1.43010385E-02  3.80688641E-02  3.83314868E-15 -1.17725585E-01
  3.21936688E-01 -1.43010385E-02  3.80688641E-02 -5.43152452E-15  1.17725585E-01
  3.21936688E-01 -2.79318514E-02 -2.79318514E-02 -2.61632159E-01 -2.61632159E-01
 -3.98991149E-14 -4.98050664E-15  2.24736896E-14  6.82437704E-14  4.44540750E-01
 -5.29433180E-14  2.85551141E-03 -9.07970437E-03  3.50813626E-14 -3.92062267E-01
  8.15055083E-03 -2.85551141E-03  9.07970437E-03  3.42049539E-14 -3.92062267E-01
 -8.15055083E-03 -2.89789848E-02  9.40426732E-02  2.34780485E-14  6.90297658E-03
  1.93614032E-02  2.89789848E-02 -9.40426732E-02  2.27698239E-14  6.90297658E-03
 -1.93614032E-02 -3.42451303E-01  3.42451303E-01  4.11409617E-02 -4.11409617E-02
 -5.78535688E-15 -6.03218406E-16  3.17817516E-15 -6.24961070E-01  4.66335776E-14
 -6.90145839E-15  1.32960693E-16 -5.64372744E-16 -3.38221758E-01 -4.17915248E-14
  4.36632950E-15 -1.86470556E-16  7.48432599E-17 -3.38221758E-01 -4.14993600E-14
  2.45458286E-15 -2.41828259E-15  8.32986431E-15 -2.21714606E-01  1.30842300E-15
 -1.16157678E-15  3.27618593E-15 -1.06675017E-14 -2.21714606E-01 -1.92979413E-15
 -7.09022591E-15 -3.47349147E-14  3.78393535E-14  7.00885432E-15  1.67496278E-16
  1.54581495E-14  2.63408194E-15 -1.31017103E-14  1.42197693E-15 -1.93294543E-01
  1.99642207E-14 -4.30379436E-02  1.47542456E-01  5.62206179E-16 -6.52120835E-02
 -3.01812607E-01  4.30379436E-02 -1.47542456E-01 -7.45054504E-16 -6.52120835E-02
  3.01812607E-01  5.08122345E-03 -2.42517071E-02  2.91133677E-15 -5.41873748E-02
  3.66808951E-01 -5.08122345E-03  2.42517071E-02  4.58084304E-16 -5.41873748E-02
 -3.66808951E-01 -8.12858345E-02  8.12858345E-02 -3.29326362E-01  3.29326362E-01
  7.22286478E-02 -1.49902292E-02  6.92133075E-02  2.02070351E-15 -2.60687851E-15
  3.34520416E-02 -6.05091634E-03  1.96930852E-02  1.15453837E-15 -1.11195101E-01
 -2.44650318E-01 -6.05091634E-03  1.96930852E-02 -9.56427735E-15  1.11195101E-01
 -2.44650318E-01  1.39855886E-02 -5.47561349E-02  6.83464456E-15  4.66859846E-01
  9.26608564E-02  1.39855886E-02 -5.47561349E-02 -5.88511323E-16 -4.66859846E-01
  9.26608564E-02 -2.02306447E-01 -2.02306447E-01  1.72324227E-01  1.72324227E-01
  2.42151660E-16 -1.31941667E-16  4.23343537E-16  6.02724371E-01 -6.06446005E-16
 -2.51255463E-16 -1.10111243E-16 -6.35861725E-17 -6.87514109E-02 -2.63090180E-16
 -2.04588453E-15  1.07900029E-16  2.35439262E-16 -6.87514109E-02  1.30663903E-15
  3.83057063E-16 -2.01864113E-16  5.29043461E-16 -5.22154476E-01  8.79433321E-16
  5.63057717E-17  1.38486278E-16 -6.33300943E-16 -5.22154476E-01 -7.85152155E-16
 -4.85973637E-16  1.40960301E-16 -1.58835179E-15 -4.01068223E-16  7.72971096E-16
 -2.84437612E-15 -5.38508313E-16  1.83894485E-15  4.33196692E-15 -2.28305265E-15
 -5.39976928E-15  1.62405179E-15 -4.39663220E-15  5.84599406E-01  1.32569081E-15
  4.47291632E-15 -9.39151727E-16  2.82225608E-15 -5.84599406E-01  7.27474341E-16
  6.96027644E-15  1.92091766E-16  3.53657286E-16  3.48699453E-01 -3.38693461E-15
 -6.35335712E-15  3.37098411E-16 -8.60243973E-16 -3.48699453E-01  2.57242115E-15
 -2.67558238E-15  1.77972050E-16  2.01706341E-15  1.06172959E-15  5.91541220E-17
 -1.24572600E-15 -4.64060973E-16  1.65200811E-15  5.66545451E-01  3.74386466E-16
 -5.06523932E-15  1.83136521E-15 -4.82142053E-15 -6.53361703E-01  4.59403728E-15
  2.11707894E-15 -1.26781061E-15  4.21989519E-15 -6.53361703E-01  1.14760141E-15
  8.06104489E-15 -2.99062395E-17  3.16990092E-15  3.40562871E-01 -5.35833337E-15