Title Card Required                                                     
SP        RHF                                                         3-21G               
Number of atoms                            I                5
Info1-9                                    I   N=           9
          18          18           0           0           0         110
           1           1           2
Full Title                                 C   N=           2
Title Card Required     
Route                                      C   N=           3
# hf/3-21g geom=connectivity        
Charge                                     I                0
Multiplicity                               I                1
Number of electrons                        I               10
Number of alpha electrons                  I                5
Number of beta electrons                   I                5
Number of basis functions                  I               17
Number of independent functions            I               17
Number of point charges in /Mol/           I                0
Number of translation vectors              I                0
Atomic numbers                             I   N=           5
           6           1           1           1           1
Nuclear charges                            R   N=           5
  6.00000000E+00  1.00000000E+00  1.00000000E+00  1.00000000E+00  1.00000000E+00
Current cartesian coordinates              R   N=          15
  1.49003315E-40 -1.65436448E-24  1.65436123E-24  1.16740621E+00  1.16740621E+00
  1.16740621E+00 -1.16740621E+00 -1.16740621E+00  1.16740621E+00 -1.16740621E+00
  1.16740621E+00 -1.16740621E+00  1.16740621E+00 -1.16740621E+00 -1.16740621E+00
Number of symbols in /Mol/                 I                0
Force Field                                I                0
Atom Types                                 C   N=           5
                                                            
Int Atom Types                             I   N=           5
           0           0           0           0           0
MM charges                                 R   N=           5
  0.00000000E+00  0.00000000E+00  0.00000000E+00  0.00000000E+00  0.00000000E+00
Integer atomic weights                     I   N=           5
          12           1           1           1           1
Real atomic weights                        R   N=           5
  1.20000000E+01  1.00782504E+00  1.00782504E+00  1.00782504E+00  1.00782504E+00
Atom fragment info                         I   N=           5
           0           0           0           0           0
Atom residue num                           I   N=           5
           0           0           0           0           0
Nuclear spins                              I   N=           5
           0           1           1           1           1
Nuclear ZEff                               R   N=           5
 -3.60000000E+00 -1.00000000E+00 -1.00000000E+00 -1.00000000E+00 -1.00000000E+00
Nuclear ZNuc                               R   N=           5
  6.00000000E+00  1.00000000E+00  1.00000000E+00  1.00000000E+00  1.00000000E+00
Nuclear QMom                               R   N=           5
  0.00000000E+00  0.00000000E+00  0.00000000E+00  0.00000000E+00  0.00000000E+00
Nuclear GFac                               R   N=           5
  0.00000000E+00  2.79284600E+00  2.79284600E+00  2.79284600E+00  2.79284600E+00
MicOpt                                     I   N=           5
          -1          -1          -1          -1          -1
Number of residues                         I                0
Number of secondary structures             I                0
Number of contracted shells                I               11
Number of primitive shells                 I               18
Pure/Cartesian d shells                    I                1
Pure/Cartesian f shells                    I                0
Highest angular momentum                   I                1
Largest degree of contraction              I                3
Shell types                                I   N=          11
           0          -1          -1           0           0           0
           0           0           0           0           0
Number of primitives per shell             I   N=          11
           3           2           1           2           1           2
           1           2           1           2           1
Shell to atom map                          I   N=          11
           1           1           1           2           2           3
           3           4           4           5           5
Primitive exponents                        R   N=          18
  1.72256000E+02  2.59109000E+01  5.53335000E+00  3.66498000E+00  7.70545000E-01
  1.95857000E-01  5.44717800E+00  8.24547240E-01  1.83191580E-01  5.44717800E+00
  8.24547240E-01  1.83191580E-01  5.44717800E+00  8.24547240E-01  1.83191580E-01
  5.44717800E+00  8.24547240E-01  1.83191580E-01
Contraction coefficients                   R   N=          18
  6.17669074E-02  3.58794043E-01  7.00713084E-01 -3.95895162E-01  1.21583436E+00
  1.00000000E+00  1.56284979E-01  9.04690877E-01  1.00000000E+00  1.56284979E-01
  9.04690877E-01  1.00000000E+00  1.56284979E-01  9.04690877E-01  1.00000000E+00
  1.56284979E-01  9.04690877E-01  1.00000000E+00
P(S=P) Contraction coefficients            R   N=          18
  0.00000000E+00  0.00000000E+00  0.00000000E+00  2.36459947E-01  8.60618806E-01
  1.00000000E+00  0.00000000E+00  0.00000000E+00  0.00000000E+00  0.00000000E+00
  0.00000000E+00  0.00000000E+00  0.00000000E+00  0.00000000E+00  0.00000000E+00
  0.00000000E+00  0.00000000E+00  0.00000000E+00
Coordinates of each shell                  R   N=          33
  0.00000000E+00 -3.30872245E-24  0.00000000E+00  0.00000000E+00 -3.30872245E-24
  0.00000000E+00  0.00000000E+00 -3.30872245E-24  0.00000000E+00  1.16740621E+00
  1.16740621E+00  1.16740621E+00  1.16740621E+00  1.16740621E+00  1.16740621E+00
 -1.16740621E+00 -1.16740621E+00  1.16740621E+00 -1.16740621E+00 -1.16740621E+00
  1.16740621E+00 -1.16740621E+00  1.16740621E+00 -1.16740621E+00 -1.16740621E+00
  1.16740621E+00 -1.16740621E+00  1.16740621E+00 -1.16740621E+00 -1.16740621E+00
  1.16740621E+00 -1.16740621E+00 -1.16740621E+00
Constraint Structure                       R   N=          15
  0.00000000E+00 -3.30872245E-24  0.00000000E+00  1.16740621E+00  1.16740621E+00
  1.16740621E+00 -1.16740621E+00 -1.16740621E+00  1.16740621E+00 -1.16740621E+00
  1.16740621E+00 -1.16740621E+00  1.16740621E+00 -1.16740621E+00 -1.16740621E+00
Num ILSW                                   I              100
ILSW                                       I   N=         100
           0           1           0           0           2           0
           0           0           0           0           0          -1
           0           0           0           0           0           0
           0           0           1           0           0           0
           1           0           0           0           0           0
           0           0      100000           0          -1           0
           0           0           0           0           0           0
           0           0           0           1           0           0
           0           0           1           0           0           0
           0           0           4          41           0           0
           0           0           0           0           0           0
           0           0           0           0           0           0
           0           0           0           0           0           0
           0           0           0           0           0           0
           0           0           0           0           0           0
           0           0           0           0           0           0
           0           0           0           0
Num RLSW                                   I               41
RLSW                                       R   N=          41
  1.00000000E+00  1.00000000E+00  1.00000000E+00  1.00000000E+00  1.00000000E+00
  0.00000000E+00  0.00000000E+00  1.00000000E+00  0.00000000E+00  0.00000000E+00
  0.00000000E+00  0.00000000E+00  1.00000000E+00  0.00000000E+00  0.00000000E+00
  0.00000000E+00  0.00000000E+00  1.00000000E+00  0.00000000E+00  0.00000000E+00
  0.00000000E+00  0.00000000E+00  1.00000000E+00  0.00000000E+00  0.00000000E+00
  0.00000000E+00  0.00000000E+00  1.00000000E+00  0.00000000E+00  0.00000000E+00
  0.00000000E+00  0.00000000E+00  1.00000000E+00  0.00000000E+00  0.00000000E+00
  0.00000000E+00  0.00000000E+00  0.00000000E+00  1.00000000E+00  1.00000000E+00
  0.00000000E+00
MxBond                                     I                4
NBond                                      I   N=           5
           4           1           1           1           1
IBond                                      I   N=          20
           2           3           4           5           1           0
           0           0           1           0           0           0
           1           0           0           0           1           0
           0           0
RBond                                      R   N=          20
  1.00000000E+00  1.00000000E+00  1.00000000E+00  1.00000000E+00  1.00000000E+00
  0.00000000E+00  0.00000000E+00  0.00000000E+00  1.00000000E+00  0.00000000E+00
  0.00000000E+00  0.00000000E+00  1.00000000E+00  0.00000000E+00  0.00000000E+00
  0.00000000E+00  1.00000000E+00  0.00000000E+00  0.00000000E+00  0.00000000E+00
Virial Ratio                               R      2.000334830319637E+00
SCF Energy                                 R     -3.997640584854703E+01
Total Energy                               R     -3.997640584854703E+01
RMS Density                                R      2.298557685851773E-10
External E-field                           R   N=          35
  0.00000000E+00  0.00000000E+00  0.00000000E+00  0.00000000E+00  0.00000000E+00
  0.00000000E+00  0.00000000E+00  0.00000000E+00  0.00000000E+00  0.00000000E+00
  0.00000000E+00  0.00000000E+00  0.00000000E+00  0.00000000E+00  0.00000000E+00
  0.00000000E+00  0.00000000E+00  0.00000000E+00  0.00000000E+00  0.00000000E+00
  0.00000000E+00  0.00000000E+00  0.00000000E+00  0.00000000E+00  0.00000000E+00
  0.00000000E+00  0.00000000E+00  0.00000000E+00  0.00000000E+00  0.00000000E+00
  0.00000000E+00  0.00000000E+00  0.00000000E+00  0.00000000E+00  0.00000000E+00
IOpCl                                      I                0
IROHF                                      I                0
Alpha Orbital Energies                     R   N=          17
 -1.11382629E+01 -9.51247121E-01 -5.48298107E-01 -5.48298107E-01 -5.48298107E-01
  3.00010133E-01  3.56701981E-01  3.56701981E-01  3.56701981E-01  9.15382776E-01
  9.15382776E-01  9.15382776E-01  1.35396139E+00  1.37169816E+00  1.37169816E+00
  1.37169816E+00  1.96129882E+00
Alpha MO coefficients                      R   N=         289
  9.87071059E-01  9.96407270E-02  0.00000000E+00  0.00000000E+00  0.00000000E+00
 -7.35422233E-02  0.00000000E+00  0.00000000E+00  0.00000000E+00 -6.72188744E-04
  1.44495805E-02 -6.72188744E-04  1.44495805E-02 -6.72188744E-04  1.44495805E-02
 -6.72188744E-04  1.44495805E-02 -2.09445410E-01  2.03274372E-01  0.00000000E+00
  0.00000000E+00  0.00000000E+00  6.12131365E-01  0.00000000E+00  0.00000000E+00
  0.00000000E+00  1.24388466E-01  2.00233601E-02  1.24388466E-01  2.00233601E-02
  1.24388466E-01  2.00233601E-02  1.24388466E-01  2.00233601E-02  0.00000000E+00
  0.00000000E+00  0.00000000E+00  0.00000000E+00  3.76574504E-01  0.00000000E+00
  0.00000000E+00  0.00000000E+00  3.08536530E-01  1.60290211E-01  1.47246639E-01
  1.60290211E-01  1.47246639E-01 -1.60290211E-01 -1.47246639E-01 -1.60290211E-01
 -1.47246639E-01  0.00000000E+00  0.00000000E+00  0.00000000E+00  3.76574504E-01
  0.00000000E+00  0.00000000E+00  0.00000000E+00  3.08536530E-01  0.00000000E+00
  1.60290211E-01  1.47246639E-01 -1.60290211E-01 -1.47246639E-01  1.60290211E-01
  1.47246639E-01 -1.60290211E-01 -1.47246639E-01  0.00000000E+00  0.00000000E+00
  3.76574504E-01  0.00000000E+00  0.00000000E+00  0.00000000E+00  3.08536530E-01
  0.00000000E+00  0.00000000E+00  1.60290211E-01  1.47246639E-01 -1.60290211E-01
 -1.47246639E-01 -1.60290211E-01 -1.47246639E-01  1.60290211E-01  1.47246639E-01
 -1.78291223E-01  3.88672842E-02  0.00000000E+00  0.00000000E+00  0.00000000E+00
  2.58949308E+00  0.00000000E+00  0.00000000E+00  0.00000000E+00  8.08243243E-03
 -9.71260624E-01  8.08243243E-03 -9.71260624E-01  8.08243243E-03 -9.71260624E-01
  8.08243243E-03 -9.71260624E-01  0.00000000E+00  0.00000000E+00  2.65474725E-01
  0.00000000E+00  0.00000000E+00  0.00000000E+00  1.45506012E+00  0.00000000E+00
  0.00000000E+00 -4.69557007E-02 -1.07012896E+00  4.69557007E-02  1.07012896E+00
  4.69557007E-02  1.07012896E+00 -4.69557007E-02 -1.07012896E+00  0.00000000E+00
  0.00000000E+00  0.00000000E+00  2.65474725E-01  0.00000000E+00  0.00000000E+00
  0.00000000E+00  1.45506012E+00  0.00000000E+00 -4.69557007E-02 -1.07012896E+00
  4.69557007E-02  1.07012896E+00 -4.69557007E-02 -1.07012896E+00  4.69557007E-02
  1.07012896E+00  0.00000000E+00  0.00000000E+00  0.00000000E+00  0.00000000E+00
  2.65474725E-01  0.00000000E+00  0.00000000E+00  0.00000000E+00  1.45506012E+00
 -4.69557007E-02 -1.07012896E+00 -4.69557007E-02 -1.07012896E+00  4.69557007E-02
  1.07012896E+00  4.69557007E-02  1.07012896E+00  0.00000000E+00  0.00000000E+00
 -7.36250217E-01  0.00000000E+00  0.00000000E+00  0.00000000E+00  1.25710842E+00
  0.00000000E+00  0.00000000E+00 -3.77814920E-01  6.69680931E-03  3.77814920E-01
 -6.69680931E-03  3.77814920E-01 -6.69680931E-03 -3.77814920E-01  6.69680931E-03
  0.00000000E+00  0.00000000E+00  0.00000000E+00 -7.36250217E-01  0.00000000E+00
  0.00000000E+00  0.00000000E+00  1.25710842E+00  0.00000000E+00 -3.77814920E-01
  6.69680931E-03  3.77814920E-01 -6.69680931E-03 -3.77814920E-01  6.69680931E-03
  3.77814920E-01 -6.69680931E-03  0.00000000E+00  0.00000000E+00  0.00000000E+00
  0.00000000E+00 -7.36250217E-01  0.00000000E+00  0.00000000E+00  0.00000000E+00
  1.25710842E+00 -3.77814920E-01  6.69680931E-03 -3.77814920E-01  6.69680931E-03
  3.77814920E-01 -6.69680931E-03  3.77814920E-01 -6.69680931E-03  1.33422219E-01
 -1.26460845E-01  0.00000000E+00  0.00000000E+00  0.00000000E+00 -4.11854745E-01
  0.00000000E+00  0.00000000E+00  0.00000000E+00  6.76972781E-01 -2.23804322E-01
  6.76972781E-01 -2.23804322E-01  6.76972781E-01 -2.23804322E-01  6.76972781E-01
 -2.23804322E-01  0.00000000E+00  0.00000000E+00 -8.77172012E-01  0.00000000E+00
  0.00000000E+00  0.00000000E+00  9.92932794E-01  0.00000000E+00  0.00000000E+00
  5.40256818E-01 -8.22220753E-01 -5.40256818E-01  8.22220753E-01 -5.40256818E-01
  8.22220753E-01  5.40256818E-01 -8.22220753E-01  0.00000000E+00  0.00000000E+00
  0.00000000E+00  0.00000000E+00 -8.77172012E-01  0.00000000E+00  0.00000000E+00
  0.00000000E+00  9.92932794E-01  5.40256818E-01 -8.22220753E-01  5.40256818E-01
 -8.22220753E-01 -5.40256818E-01  8.22220753E-01 -5.40256818E-01  8.22220753E-01
  0.00000000E+00  0.00000000E+00  0.00000000E+00 -8.77172012E-01  0.00000000E+00
  0.00000000E+00  0.00000000E+00  9.92932794E-01  0.00000000E+00  5.40256818E-01
 -8.22220753E-01 -5.40256818E-01  8.22220753E-01  5.40256818E-01 -8.22220753E-01
 -5.40256818E-01  8.22220753E-01 -1.74465318E-02 -2.01041806E+00  0.00000000E+00
  0.00000000E+00  0.00000000E+00  4.01091762E+00  0.00000000E+00  0.00000000E+00
  0.00000000E+00 -1.36363077E-01 -8.00080674E-01 -1.36363077E-01 -8.00080674E-01
 -1.36363077E-01 -8.00080674E-01 -1.36363077E-01 -8.00080674E-01
Total SCF Density                          R   N=         153
  2.03635331E+00  1.11555187E-01  1.02497490E-01  0.00000000E+00  0.00000000E+00
  2.83616714E-01  0.00000000E+00  0.00000000E+00 -2.55425368E-17  2.83616714E-01
  0.00000000E+00  0.00000000E+00  3.73504508E-17 -5.37916252E-17  2.83616714E-01
 -4.01599010E-01  2.34205637E-01  0.00000000E+00  0.00000000E+00  0.00000000E+00
  7.60226534E-01  0.00000000E+00  0.00000000E+00  2.32373982E-01 -2.09276136E-17
  3.06021209E-17  0.00000000E+00  1.90389581E-01  0.00000000E+00  0.00000000E+00
 -2.09276136E-17  2.32373982E-01 -4.40727698E-17  0.00000000E+00 -1.71464961E-17
  1.90389581E-01  0.00000000E+00  0.00000000E+00  3.06021209E-17 -4.40727698E-17
  2.32373982E-01  0.00000000E+00  2.50730522E-17 -3.61098782E-17  1.90389581E-01
 -5.34321828E-02  5.04360201E-02  1.20722413E-01  1.20722413E-01  1.20722413E-01
  1.52383032E-01  9.89107709E-02  9.89107709E-02  9.89107709E-02  1.85103594E-01
  2.01379236E-02  1.10200053E-02  1.10898660E-01  1.10898660E-01  1.10898660E-01
  2.23885450E-02  9.08619345E-02  9.08619345E-02  9.08619345E-02  1.46575093E-01
  1.31308887E-01 -5.34321828E-02  5.04360201E-02 -1.20722413E-01 -1.20722413E-01
  1.20722413E-01  1.52383032E-01 -9.89107709E-02 -9.89107709E-02  9.89107709E-02
 -2.04400184E-02 -4.22424652E-02  1.85103594E-01  2.01379236E-02  1.10200053E-02
 -1.10898660E-01 -1.10898660E-01  1.10898660E-01  2.23885450E-02 -9.08619345E-02
 -9.08619345E-02  9.08619345E-02 -4.22424652E-02 -4.21436950E-02  1.46575093E-01
  1.31308887E-01 -5.34321828E-02  5.04360201E-02 -1.20722413E-01  1.20722413E-01
 -1.20722413E-01  1.52383032E-01 -9.89107709E-02  9.89107709E-02 -9.89107709E-02
 -2.04400184E-02 -4.22424652E-02 -2.04400184E-02 -4.22424652E-02  1.85103594E-01
  2.01379236E-02  1.10200053E-02 -1.10898660E-01  1.10898660E-01 -1.10898660E-01
  2.23885450E-02 -9.08619345E-02  9.08619345E-02 -9.08619345E-02 -4.22424652E-02
 -4.21436950E-02 -4.22424652E-02 -4.21436950E-02  1.46575093E-01  1.31308887E-01
 -5.34321828E-02  5.04360201E-02  1.20722413E-01 -1.20722413E-01 -1.20722413E-01
  1.52383032E-01  9.89107709E-02 -9.89107709E-02 -9.89107709E-02 -2.04400184E-02
 -4.22424652E-02 -2.04400184E-02 -4.22424652E-02 -2.04400184E-02 -4.22424652E-02
  1.85103594E-01  2.01379236E-02  1.10200053E-02  1.10898660E-01 -1.10898660E-01
 -1.10898660E-01  2.23885450E-02  9.08619345E-02 -9.08619345E-02 -9.08619345E-02
 -4.22424652E-02 -4.21436950E-02 -4.22424652E-02 -4.21436950E-02 -4.22424652E-02
 -4.21436950E-02  1.46575093E-01  1.31308887E-01
Mulliken Charges                           R   N=           5
 -8.02354974E-01  2.00588743E-01  2.00588743E-01  2.00588743E-01  2.00588743E-01
ONIOM Charges                              I   N=          16
           0           0           0           0           0           0
           0           0           0           0           0           0
           0           0           0           0
ONIOM Multiplicities                       I   N=          16
           1           0           0           0           0           0
           0           0           0           0           0           0
           0           0           0           0
Atom Layers                                I   N=           5
           1           1           1           1           1
Atom Modifiers                             I   N=           5
           0           0           0           0           0
Force Field                                I                0
Atom Modified Types                        C   N=           5
                                                            
Int Atom Modified Types                    I   N=           5
           0           0           0           0           0
Link Atoms                                 I   N=           5
           0           0           0           0           0
Atom Modified MM Charges                   R   N=           5
  0.00000000E+00  0.00000000E+00  0.00000000E+00  0.00000000E+00  0.00000000E+00
Link Distances                             R   N=          20
  0.00000000E+00  0.00000000E+00  0.00000000E+00  0.00000000E+00  0.00000000E+00
  0.00000000E+00  0.00000000E+00  0.00000000E+00  0.00000000E+00  0.00000000E+00
  0.00000000E+00  0.00000000E+00  0.00000000E+00  0.00000000E+00  0.00000000E+00
  0.00000000E+00  0.00000000E+00  0.00000000E+00  0.00000000E+00  0.00000000E+00
Cartesian Gradient                         R   N=          15
  0.00000000E+00  0.00000000E+00  0.00000000E+00  0.00000000E+00  0.00000000E+00
  0.00000000E+00  0.00000000E+00  0.00000000E+00  0.00000000E+00  0.00000000E+00
  0.00000000E+00  0.00000000E+00  0.00000000E+00  0.00000000E+00  0.00000000E+00
Dipole Moment                              R   N=           3
 -2.21610924E-16  1.93855355E-16  5.51316805E-17
Quadrupole Moment                          R   N=           6
 -8.88178420E-16  8.88178420E-16  8.88178420E-16  4.44035000E-16 -2.71050543E-20
 -1.10988421E-16
QEq coupling tensors                       R   N=          30
 -1.75131568E-31  4.71844785E-16 -2.46519033E-31 -6.80011603E-16  7.77156117E-16
  0.00000000E+00  1.62627250E-23 -1.83594538E-01 -2.22044605E-16 -1.83594538E-01
 -1.83594538E-01  2.77555756E-17 -2.74391812E-16 -1.83594538E-01  0.00000000E+00
  1.83594538E-01  1.83594538E-01 -3.46944695E-16 -4.81399910E-17  1.83594538E-01
 -4.16333634E-17 -1.83594538E-01  1.83594538E-01 -4.16333634E-17 -1.38778041E-17
  1.83594538E-01  4.16333634E-17  1.83594538E-01 -1.83594538E-01  2.77555756E-17
